
 *******************************************************************************
 *                                                                             *
 *  -------------------------------------                                      *
 *   Amsterdam Density Functional  (ADF)         2012.01   January 26, 2012    *
 *  -------------------------------------                                      *
 *                                               Build 201201262206            *
 *                                                                             *
 *                                                                             *
 *                            =====================                            *
 *                            |                   |                            *
 *                            |     D I R A C     |                            *
 *                            |                   |                            *
 *                            =====================                            *
 *                                                                             *
 *                                                                             *
 *   Online information and documentation:  http://www.scm.com                 *
 *   E-mail:  support@scm.com   info@scm.com                                   *
 *                                                                             *
 *   Scientific publications using ADF results must be properly referenced     *
 *   See the User Manuals (or the web site) for recommended citations          *
 *   The terms and conditions of the End User License Agreement apply to       *
 *   the use of ADF, http://www.scm.com/Sales/LicAgreement.html                *
 *                                                                             *
 *****************************  pentium64_linux  *******************************
 
 DIRAC 2012.01  RunTime: Dec17-2013 08:27:32  Nodes: 1  Procs: 1

 Temporary files are created in /tmp/1359626.1.batch.q/kid_0.1wa8Qi

1
 SILVER ATOM 3d CORE RELATIVISTIC, Point Nuc, A and c from li
 N J RN H ZN XION ANUC CLIGHT
 5000   15100.00000000197.36710137 47.00000000  0.00000000  106.905093  0.1370360E+03
  PH   PHI     EPS        DEL        DELRVR
  0.30  0.30     2500.00  0.00001000  0.00001000
 IDIRC  NC1  NDEBU NPRIN  IPUN IRCOR IWCOR
   1   300     0     0     0     0     9
   XALPHA      XLATTER      RNUC
  0.70000000  0.00000000  0.00000000 Point Charge
   XN   XL   XJ      XE          XZ      XDELL
  1.0  0.0  0.5   -1500.000       2.000     0.00000
  2.0  0.0  0.5    -325.000       2.000     0.00000
  2.0  1.0  0.5    -325.000       2.000     0.00000
  2.0  1.0  1.5    -325.000       4.000     0.00000
  3.0  0.0  0.5     -70.000       2.000     0.00000
  3.0  1.0  0.5     -70.000       2.000     0.00000
  3.0  1.0  1.5     -70.000       4.000     0.00000
  3.0  2.0  1.5     -60.000       4.000     0.00000
  3.0  2.0  2.5     -60.000       6.000     0.00000
  4.0  0.0  0.5     -10.000       2.000     0.00000
  4.0  1.0  0.5     -10.000       2.000     0.00000
  4.0  1.0  1.5     -10.000       4.000     0.00000
  4.0  2.0  1.5      -1.000       4.000     0.00000
  4.0  2.0  2.5      -1.000       6.000     0.00000
  5.0  0.0  0.5      -0.500       1.000     0.00000
 ICORP=  0  NPCL=  0  DEMP=0.00  PEPS=0.000000
 R(1)=  0.1000000E-08 D=  0.1005080E+01 RNUC=  0.0000000E+00
 converged at cycle   37  DENSITY AVERAGING    0.1536
  MAXIMUM ERROR IN R.V(R) IS   0.73266205E-05
 Q,EY,EV,EZ,ESUM,ETOT,RHO  0.470000E+02 -0.196167E+03 -0.876390E+04 -0.128962E+05 -0.319969E+04 -0.531488E+04  0.734901E-11


 DIRAC CALCULATION
1                    SILVER ATOM 3d CORE RELATIVISTIC, Point Nuc, A and c from libtc


 EXCHANGE COEFFICIENT=  0.7000000           TAIL CORRECTION=  0.           NUCLEAR RADIUS=  0.000E+00
0                       ORBITAL    N    L    J     ELECTRONS     EIGENVALUE                DELTA OF EIGENV.

                          1S1/2  1.0  0.0  0.5     2.000       -0.9298445E+03                 0.2273091E-04
                          2S1/2  2.0  0.0  0.5     2.000       -0.1369628E+03                 0.3639498E-04
                          2P1/2  2.0  1.0  0.5     2.000       -0.1273849E+03                 0.3693015E-04
                          2P3/2  2.0  1.0  1.5     4.000       -0.1209397E+03                 0.3702741E-04
                          3S1/2  3.0  0.0  0.5     2.000       -0.2508734E+02                 0.1716513E-04
                          3P1/2  3.0  1.0  0.5     2.000       -0.2126622E+02                 0.1799299E-04
                          3P3/2  3.0  1.0  1.5     4.000       -0.2012758E+02                 0.1718269E-04
                          3D3/2  3.0  2.0  1.5     4.000       -0.1333155E+02                 0.2053383E-04
                          3D5/2  3.0  2.0  2.5     6.000       -0.1310170E+02                 0.2025648E-04
                          4S1/2  4.0  0.0  0.5     2.000       -0.3467319E+01                 0.6825765E-06
                          4P1/2  4.0  1.0  0.5     2.000       -0.2259901E+01                 0.4193829E-06
                          4P3/2  4.0  1.0  1.5     4.000       -0.2069785E+01                 0.2705207E-06
                          4D3/2  4.0  2.0  1.5     4.000       -0.2640772E+00                 0.3034642E-06
                          4D5/2  4.0  2.0  2.5     6.000       -0.2433402E+00                 0.3285318E-06
                          5S1/2  5.0  0.0  0.5     1.000       -0.1450750E+00                 0.2931479E-06


                                        NUCLEAR CHARGE=   47.000000
                            INTEGRAL OF CHARGE DENSITY=   47.000000
                           SUM OF THE ORBITAL ENERGIES=  -3199.6921
                                          TOTAL ENERGY=  -5314.8812
                                        KINETIC ENERGY=   5564.2055
                             NUCLEAR ATTRACTION ENERGY= -12896.1922
                             ELECTRON REPULSION ENERGY=   2164.2310
                                       EXCHANGE ENERGY=   -147.1255

 *******************************************************************************

                             D I R A C   E X I T
 NORMAL TERMINATION



 =================
 Timing Statistics
 =================
  
 Total Used :                     CPU=        0.42      System=        0.06     Elapsed=        0.54

 Calls  Section                     ( Mean, Percentage )
 ---------------------------------------------------------------------------------------------------
     2  ><      ................      0.00    0.00             0.00    0.00             0.00    0.00
     1  EXIT PROCEDURE .........      0.42  100.00             0.06  100.00             0.54  100.00


 Currently Open Files (EXIT00)
 ====================

 Unit    Access Format  Status   Type       Ident (file)
 -------------------------------------------------------
   3      SEQ    FORM   TRANSP  NORMAL      LOGFILE
                                          ( logfile )


 Buffered I/O statistics
 =======================
 Memory available:                    268435456
 Number of records fitting in memory:     64527
 Input : 100.0% of                            0  *4k bytes
 Output: 100.0% of                            0  *4k bytes
 Records from serial files evicted:           0
                    others evicted:           0
 Hash table lookups:          0 with          0 conflicts (100.00%)
(INPUT FILE)
Create Ag   file=/homes/cmaikens/adf2012.01/atomicdata/ZORA/TZP/Ag.3d
XC
GGA Becke Perdew
End
relativistic ZORA
Corepotentials t12.rel
End Input

 *******************************************************************************
 *                                                                             *
 *  -------------------------------------                                      *
 *   Amsterdam Density Functional  (ADF)         2012.01   January 26, 2012    *
 *  -------------------------------------                                      *
 *                                               Build 201201262307            *
 *                                                                             *
 *                                                                             *
 *                              =================                              *
 *                              |               |                              *
 *                              |     A D F     |                              *
 *                              |               |                              *
 *                              =================                              *
 *                                                                             *
 *                                                                             *
 *   Online information and documentation:  http://www.scm.com                 *
 *   E-mail:  support@scm.com   info@scm.com                                   *
 *                                                                             *
 *   Scientific publications using ADF results must be properly referenced     *
 *   See the User Manuals (or the web site) for recommended citations          *
 *   The terms and conditions of the End User License Agreement apply to       *
 *   the use of ADF, http://www.scm.com/Sales/LicAgreement.html                *
 *                                                                             *
 **********************  pentium64_linux / platform_mpi  ***********************
 
 ADF 2012.01  RunTime: Dec17-2013 08:27:33  Nodes: 1  Procs: 1

 Temporary files are created in /tmp/1359626.1.batch.q/kid_0.ynyOPe

 Silver (TZP, 3d frozen)



 ===========================
 A T T A C H E D   F I L E S
 ===========================
  
 CREATE - Data File:    /homes/cmaikens/adf2012.01/atomicdata/ZORA/TZP/Ag.3d
                        Silver (TZP, 3d frozen)
 Core Potentials:
         file : t12.rel



 ===============================
 M O D E L   P A R A M E T E R S
 ===============================
  
 DENSITY FUNCTIONAL POTENTIAL (scf)
    LDA:                               VWN                                      
    Gradient Corrections:              Becke88 Perdew86                        == Not Default ==

 SPIN  (restricted / unrestr.)
    Molecule:                          Restricted                               

 OTHER ASPECTS
    Relativistic Corrections:          scalar (ZORA,SAPA)                       *** SPECIAL ***

    Nuclear Charge Density Model:      Point Charge Nuclei                                                                                                                                                                                     
    Core Treatment:                    Frozen Orbital(s)                        

    Electric Field:                    ---                                      

    Hyperfine or Zeeman Interaction:   ---                                      



 =====================================
 S Y M M E T R Y ,   E L E C T R O N S
 =====================================
  
 Symmetry: ATOM

 Irreducible Representations, including subspecies
 -------------------------------------------------
 S
 P:x  P:y  P:z
 D:z2  D:x2-y2  D:xy  D:xz  D:yz
 F:z3  F:z  F:xyz  F:z2x  F:z2y  F:x  F:y


 Configuration of Valence Electrons
 ==================================

          Occupation Numbers
          -------------------------------------------------
 S        2 1
 P        6
 D        10
 F        0
          -------------------------------------------------

 Total:   19

 Net Charge: 0 (Nuclei minus Electrons)

 Preset values for MO occupations will be applied through SCF cycle no. 1000000
 Thereafter, the program will assign electrons to MOs that are spatially
 similar to the occupied MOs in a "reference" cycle ("KeepOrbitals").
 The reference cycle is always the PREVIOUS cycle: it will evolve with
 the SCF procedure.



 ================================
 (Slater-type)  F U N C T I O N S  ***  (Basis and Fit)  ***
 ================================
  

 Atom Type    1  (Ag)
 ==============

 Valence Basis Sets:  18
 -----------------------
   1 S   30.800000
   2 S   20.300000
   3 S    9.550000
   2 P   21.100000
   3 P   10.100000
   3 D   11.650000
   4 S    6.350000
   4 S    4.050000
   5 S    2.600000
   5 S    1.550000
   5 S    0.950000
   4 P    6.150000
   4 P    4.150000
   4 P    2.900000
   4 D    4.750000
   4 D    2.600000
   4 D    1.380000
   5 P    1.550000

 Frozen Core Shells
 ------------------
    S:  3
    P:  2
    D:  1

 Charge Fitting Sets (for the computation of the Coulomb Potential):  51
 -----------------------------------------------------------------------
   1 S   61.600000
   1 S   36.350000
   2 S   39.760000
   3 S   38.850000
   3 S   27.540000
   4 S   25.820000
   4 S   19.060000
   5 S   17.540000
   5 S   13.330000
   6 S   12.140000
   6 S    9.440000
   7 S    8.550000
   7 S    6.760000
   8 S    6.110000
   8 S    4.900000
   8 S    3.930000
   9 S    3.550000
   9 S    2.880000
   9 S    2.340000
   9 S    1.900000
   2 P   51.900000
   3 P   41.280000
   4 P   32.450000
   5 P   25.520000
   6 P   20.150000
   6 P   13.650000
   7 P   10.840000
   7 P    7.550000
   8 P    6.030000
   8 P    4.290000
   9 P    3.450000
   9 P    2.500000
   3 D   42.450000
   4 D   30.180000
   5 D   21.700000
   6 D   15.790000
   6 D    9.890000
   7 D    7.280000
   7 D    4.710000
   8 D    3.510000
   8 D    2.330000
   4 F   32.800000
   5 F   21.490000
   6 F   14.360000
   6 F    8.280000
   7 F    5.640000
   7 F    3.380000
   5 G   23.300000
   6 G   11.600000
   7 G    6.010000
   7 G    2.760000


 BAS: List of all Elementary Cartesian Basis Functions
 =====================================================

 The numbering in the list below (to the right of the function characteristics) is referred
 to in print-outs of MO eigenvectors and Mulliken populations in the BAS representation
 (as contrasted to the SFO representation).

 Notes:
 1. The functions are characterized by a polynomial prefactor (powers of x,y,z and r) and
    an exponential decay factor alpha.
 2. Since the basis sets are specific for an atom TYPE, the individual functions occur on
    all atoms of that type.
 3. The word 'Core' in the left margin signals that it is a Core Function (CF) : not a
    degree of freedom in the valence set, but only used to ensure orthogonalization of
    the other valence basis functions on the frozen Core Orbitals.


 (power of) X  Y  Z  R     Alpha  on Atom
            ==========     =====     ==========

 Ag                                   1
                                  ---------------------------------------------------------------------------
    Core    0  0  0  0    30.800      1
    Core    0  0  0  1    20.300      2
    Core    0  0  0  2     9.550      3
    Core    1  0  0  0    21.100      4
    Core    0  1  0  0    21.100      5
    Core    0  0  1  0    21.100      6
    Core    1  0  0  1    10.100      7
    Core    0  1  0  1    10.100      8
    Core    0  0  1  1    10.100      9
    Core    2  0  0  0    11.650     10
    Core    1  1  0  0    11.650     11
    Core    1  0  1  0    11.650     12
    Core    0  2  0  0    11.650     13
    Core    0  1  1  0    11.650     14
    Core    0  0  2  0    11.650     15
            0  0  0  3     6.350     16
            0  0  0  3     4.050     17
            0  0  0  4     2.600     18
            0  0  0  4     1.550     19
            0  0  0  4     0.950     20
            1  0  0  2     6.150     21
            0  1  0  2     6.150     22
            0  0  1  2     6.150     23
            1  0  0  2     4.150     24
            0  1  0  2     4.150     25
            0  0  1  2     4.150     26
            1  0  0  2     2.900     27
            0  1  0  2     2.900     28
            0  0  1  2     2.900     29
            2  0  0  1     4.750     30
            1  1  0  1     4.750     31
            1  0  1  1     4.750     32
            0  2  0  1     4.750     33
            0  1  1  1     4.750     34
            0  0  2  1     4.750     35
            2  0  0  1     2.600     36
            1  1  0  1     2.600     37
            1  0  1  1     2.600     38
            0  2  0  1     2.600     39
            0  1  1  1     2.600     40
            0  0  2  1     2.600     41
            2  0  0  1     1.380     42
            1  1  0  1     1.380     43
            1  0  1  1     1.380     44
            0  2  0  1     1.380     45
            0  1  1  1     1.380     46
            0  0  2  1     1.380     47
            1  0  0  3     1.550     48
            0  1  0  3     1.550     49
            0  0  1  3     1.550     50

 Total number of charge fitting functions (nprimf)       230
 Total number of Cartesian basis functions (naos)         50
 Total number of Cartesian core functions  (ncos)         15



 BAS: List of all Elementary Cartesian Basis Functions
 =====================================================

 The numbering in the list below (to the right of the function characteristics) is referred
 to in print-outs of MO eigenvectors and Mulliken populations in the BAS representation
 (as contrasted to the SFO representation).

 Notes:
 1. The functions are characterized by a polynomial prefactor (powers of x,y,z and r) and
    an exponential decay factor alpha.
 2. Since the basis sets are specific for an atom TYPE, the individual functions occur on
    all atoms of that type.
 3. The word 'Core' in the left margin signals that it is a Core Function (CF) : not a
    degree of freedom in the valence set, but only used to ensure orthogonalization of
    the other valence basis functions on the frozen Core Orbitals.


 (power of) X  Y  Z  R     Alpha  on Atom
            ==========     =====     ==========

 Ag                                   1
                                  ---------------------------------------------------------------------------
    Core    0  0  0  0    30.800      1
    Core    0  0  0  1    20.300      2
    Core    0  0  0  2     9.550      3
    Core    1  0  0  0    21.100      4
    Core    0  1  0  0    21.100      5
    Core    0  0  1  0    21.100      6
    Core    1  0  0  1    10.100      7
    Core    0  1  0  1    10.100      8
    Core    0  0  1  1    10.100      9
    Core    2  0  0  0    11.650     10
    Core    1  1  0  0    11.650     11
    Core    1  0  1  0    11.650     12
    Core    0  2  0  0    11.650     13
    Core    0  1  1  0    11.650     14
    Core    0  0  2  0    11.650     15
            0  0  0  3     6.350     16
            0  0  0  3     4.050     17
            0  0  0  4     2.600     18
            0  0  0  4     1.550     19
            0  0  0  4     0.950     20
            1  0  0  2     6.150     21
            0  1  0  2     6.150     22
            0  0  1  2     6.150     23
            1  0  0  2     4.150     24
            0  1  0  2     4.150     25
            0  0  1  2     4.150     26
            1  0  0  2     2.900     27
            0  1  0  2     2.900     28
            0  0  1  2     2.900     29
            2  0  0  1     4.750     30
            1  1  0  1     4.750     31
            1  0  1  1     4.750     32
            0  2  0  1     4.750     33
            0  1  1  1     4.750     34
            0  0  2  1     4.750     35
            2  0  0  1     2.600     36
            1  1  0  1     2.600     37
            1  0  1  1     2.600     38
            0  2  0  1     2.600     39
            0  1  1  1     2.600     40
            0  0  2  1     2.600     41
            2  0  0  1     1.380     42
            1  1  0  1     1.380     43
            1  0  1  1     1.380     44
            0  2  0  1     1.380     45
            0  1  1  1     1.380     46
            0  0  2  1     1.380     47
            1  0  0  3     1.550     48
            0  1  0  3     1.550     49
            0  0  1  3     1.550     50
1
 ***************************************************************************************************



                                              ***********************
                                              *  T E C H N I C A L  *
                                              ***********************
  



 =============================================================
 P A R A L L E L I Z A T I O N  and  V E C T O R I Z A T I O N
 =============================================================
  
 Nr of parallel processes:                                1
 Maximum vector length in NumInt loops:                 128



 ===============
 I O  vs.  C P U  ***  (store numerical data on disk or recalculate)  ***
 ===============
  
 Basis functions:   recalculate when needed
 Fit functions:     recalculate when needed

 IO buffersize (Mb):                                    256.000000



 =====================
 S C F   U P D A T E S
 =====================
  
 Max. nr. of cycles:                               100
 Convergence criterion:                              0.0000000100
   secondary criterion:                              0.0000000100

 Mix parameter (when DIIS does not apply):           0.2000000000
 Special mix parameter for the first cycle:          1.0000000000


 DIIS (Direct Inversion in Iteration Space)
    Replace damping when SCF Error is below:         0.5000000000
    Apply anyway after SCF cycle:
                                                     5
    (Max.) nr. of expansion vectors:                10

    Upperbound on expansion coefficients:            5.0000000000
    (when exceeded, IterationSpace is re-built)
    2nd Upperbound on coefficients:                 25.0000000000
    (when exceeded, simple damping will be used)
 Automatic ElectronSmearing (in case of problematic SCF convergence) disabled



 =================
 P R E C I S I O N  ***  (General: NumInt, NeglectFunctionTails, ...)  ***
 =================
  

 NumInt:           Target precision:                10.0000000000
 -------           Initial precision:               10.0000000000
                   Min. precision (optimization):   10.0000000000

 Neglect Functions:          Basis functions:        0.1000000000E-11
 ------------------          Fit functions:          0.1000000000E-11



 ===========================
 L I N E A R   S C A L I N G
 ===========================
  

 Cut-off radii density fit:                        0.1000000000E-13
 Overlap cut-off criterion AO matrix elements:     0.1000000000E-11
 Cut-offs for Coulomb potential and fitted density:0.1000000000E-13
 Cut-off criterion for Coulomb multipole terms:    0.1000000000E-13
 Progressive Convergence parameter:                 0.000000000    
1
 ***************************************************************************************************



                                            ***************************
                                            *  C O M P U T A T I O N  *
                                            ***************************
  

 Number of elements of the density matrix on this node (used, total):      1275      1275



 ====================================================
 Numerical Integration : Voronoi Polyhedra (Te Velde)  ***  (parameters, tests)  ***
 ====================================================
  
 General Accuracy Parameter :                         10.00

 Symmetry used in the points section:  ATOM  


 Summary of the Symmetry Unique Points:
 --------------------------------------
    Nr. of used Symmetry Operators                     1

    Points in the Atomic Spheres                      94
    Points in the Atomic Polyhedra                     0
    Points in the Outer Region                         0
    ----------------------------------------------------
    Total                                             94

    Sum of Weights                                114259.875357

 Total nr. of points:         94
 Nr. of blocks:                1
 Block length:                94
 Nr. of dummy points:          0


 Test of Precision of the Numerical Integration Grid
 ===================================================

 Integral of the Total Core Density:                  27.99999992831499
 Relative Error:                                      -2.560E-09



 =====
 S C F
 =====
  

 CYCLE    1
 orbitals (Q,E):
 ---------------
 S :1...5            ( 2.00    -3.4932)  ( 1.00    -0.1678)  ( 0.00     0.0495)  ( 0.00     0.5481)
                     ( 0.00     4.1890)
 P :1...4            ( 6.00    -2.1702)  ( 0.00     0.0010)  ( 0.00     0.9464)  ( 0.00     6.3133)
 D :1...3            (10.00    -0.2809)  ( 0.00     0.2936)  ( 0.00     2.2251)

 CYCLE    2
 d-Pmat  mean:  0.22E-02
 imax=     33: -0.66E-02
 orbitals (Q,E):
 ---------------
 S :1...3            ( 2.00    -3.4789)  ( 1.00    -0.1655)  ( 0.00     0.0499)
 P :1...2            ( 6.00    -2.1568)  ( 0.00     0.0025)
 D :1...2            (10.00    -0.2711)  ( 0.00     0.2958)

 CYCLE    3
 d-Pmat  mean:  0.14E-02
 imax=     35:  0.43E-02
 orbitals (Q,E):
 ---------------
 S :1...3            ( 2.00    -3.4878)  ( 1.00    -0.1670)  ( 0.00     0.0494)
 P :1...2            ( 6.00    -2.1651)  ( 0.00     0.0014)
 D :1...2            (10.00    -0.2771)  ( 0.00     0.2943)

 CYCLE    4
 d-Pmat  mean:  0.75E-04
 imax=     18:  0.23E-03
 orbitals (Q,E):
 ---------------
 S :1...3            ( 2.00    -3.4884)  ( 1.00    -0.1672)  ( 0.00     0.0493)
 P :1...2            ( 6.00    -2.1657)  ( 0.00     0.0012)
 D :1...2            (10.00    -0.2776)  ( 0.00     0.2941)

 CYCLE    5
 d-Pmat  mean:  0.28E-05
 imax=     18: -0.99E-05
 orbitals (Q,E):
 ---------------
 S :1...3            ( 2.00    -3.4884)  ( 1.00    -0.1672)  ( 0.00     0.0493)
 P :1...2            ( 6.00    -2.1657)  ( 0.00     0.0012)
 D :1...2            (10.00    -0.2775)  ( 0.00     0.2941)

 CYCLE    6
 d-Pmat  mean:  0.17E-07
 imax=     19: -0.13E-06
 orbitals (Q,E):
 ---------------
 S :1...3            ( 2.00    -3.4884)  ( 1.00    -0.1672)  ( 0.00     0.0493)
 P :1...2            ( 6.00    -2.1657)  ( 0.00     0.0012)
 D :1...2            (10.00    -0.2775)  ( 0.00     0.2941)

 CYCLE    7
 d-Pmat  mean:  0.11E-08
 imax=     19: -0.11E-07
 orbitals (Q,E):
 ---------------
 S :1...3            ( 2.00    -3.4884)  ( 1.00    -0.1672)  ( 0.00     0.0493)
 P :1...2            ( 6.00    -2.1657)  ( 0.00     0.0012)
 D :1...2            (10.00    -0.2775)  ( 0.00     0.2941)

 SCF CONVERGED

 CYCLE    8
1
 ***************************************************************************************************



                                                *******************
                                                *  R E S U L T S  *
                                                *******************
  
 *** Setting up for NEW gradients in focky
 *** Using FIT density in focky
 XCFun disabled
 XCFun disabled
 XCFun disabled

 Scaled ZORA Orbital Energies, per Irrep and Spin:
 =================================================
                        Occup              E (au)              E (eV)       Diff (eV) with prev. cycle
                        -----      --------------------        ------       --------------------------
 S
               1        2.000     -0.34883937327255E+01       -94.924               1.01E-09
               2        1.000     -0.16721774376307E+00        -4.550               8.48E-10
               3        0.000      0.49292090859751E-01         1.341
               4        0.000      0.54900113066203E+00        14.939
               5        0.000      0.41923034015691E+01       114.078
 P
               1        6.000     -0.21656535049739E+01       -58.930               1.04E-09
               2        0.000      0.12312059741376E-02         0.034
               3        0.000      0.94805018589873E+00        25.798
               4        0.000      0.63168566721937E+01       171.890
 D
               1       10.000     -0.27753746737237E+00        -7.552               1.07E-09
               2        0.000      0.29412398526233E+00         8.004
               3        0.000      0.22279871540449E+01        60.627


 Partially Occupied:
               2 S                -0.16721774376307E+00
  
 HOMO :        1 D                -0.27753746737237E+00
 LUMO :        2 P                 0.12312059741376E-02
  


 Orbital Energies, all Irreps
 ========================================

 Irrep        no.  (spin)   Occup              E (au)                E (eV)
 ---------------------------------------------------------------------------
 S             1             2.00       -0.34883937327255E+01       -94.9240
 P             1             6.00       -0.21656535049739E+01       -58.9304
 D             1            10.00       -0.27753746737237E+00        -7.5522
 S             2             1.00       -0.16721774376307E+00        -4.5502
 P             2             0.00        0.12312059741376E-02         0.0335
 S             3             0.00        0.49292090859751E-01         1.3413
 D             2             0.00        0.29412398526233E+00         8.0035
 S             4             0.00        0.54900113066203E+00        14.9391
 P             3             0.00        0.94805018589873E+00        25.7978
 D             3             0.00        0.22279871540449E+01        60.6266
 S             5             0.00        0.41923034015691E+01       114.0784
 P             4             0.00        0.63168566721937E+01       171.8904


 Scaled ZORA Orbital Energies of the Core Orbitals:
 ==================================================

 (Note that the atoms are grouped by atomtype, see the labels, and may hence NOT be in input order)

 AtomType  Orbital  Atom                   E (au)                        E (eV)
 --------  -------  ----           --------------------        ----------------
 Ag          1S        1          -0.93051917515589E+03              -25320.715
             2S        1          -0.13700540306455E+03               -3728.107
             3S        1          -0.25114511935225E+02                -683.401
             2P        1          -0.12286153862350E+03               -3343.233
             3P        1          -0.20498924322833E+02                -557.804
             3D        1          -0.13198949396919E+02                -359.162



 =======================================
 M U L L I K E N   P O P U L A T I O N S
 =======================================
  
 The survey below gives for each atom:
 a) the total charge (Z minus electrons)
 b) the net spin polarization (nr of electrons spin-A minus spin-B)
 c) for each spin the atomic electron valence density (integrated) per L-value.

 Atom              Charge    Spin density          S         P         D         F
 ----              ------    ------------       ------    ------    ------    ------
 1 Ag              0.0000                       3.0000    6.0000   10.0000    0.0000

 Populations of individual BAS functions
 ----------------------------------------
 1 Ag          -0.0085  0.0044 -0.0712  0.0003  0.0003  0.0003  0.0270  0.0270  0.0270  0.0387
                0.0580  0.0580  0.0387  0.0580  0.0387  1.3215  0.7613  0.3605  0.5376  0.0943
                0.7450  0.7450  0.7450  1.0681  1.0681  1.0681  0.1587  0.1587  0.1587  0.5515
                0.8273  0.8273  0.5515  0.8273  0.5515  0.6409  0.9614  0.9614  0.6409  0.9614
                0.6409  0.1022  0.1533  0.1533  0.1022  0.1533  0.1022  0.0010  0.0010  0.0010

 Gross Charges per Atom (Z minus electrons)
 ==========================================
             0.0000
 Net Total:  0.00000000


 Atom-Atom Population Matrix (off-diagonal elements not doubled)
 ===============================================================

     1 :    19.0000



 =============
 Dipole Moment  ***  (Debye)  ***
 =============
  
 Vector   :         0.00000000      0.00000000      0.00000000
 Magnitude:         0.00000000

 This molecular dipole moment is calculated with analytic integration



 =========================================
 Quadrupole Moment (Buckingham convention)  ***  (a.u.)  ***
 =========================================
  
      quad-xx        quad-xy        quad-xz        quad-yy        quad-yz        quad-zz
      0.00000000     0.00000000     0.00000000     0.00000000     0.00000000     0.00000000

 This molecular quadrupole moment is calculated with analytic integration



 ===============================================================================
 Electrostatic potential at the Nuclei due to valence electrons and other nuclei
 ===============================================================================
  
         Atom                  Potential
         ----                  ---------
     1)   Ag                 21.10983739
 
 
 ========================
 No memory problems found
 ========================
 
 Maximum number of active allocate calls:         391
 
 *******************************************************************************

                             A D F   E X I T
 NORMAL TERMINATION



 =================
 Timing Statistics
 =================
  
 Total Used :                     CPU=        0.20      System=        0.08     Elapsed=        1.31

 Calls  Section                     ( Mean, Percentage )
 ---------------------------------------------------------------------------------------------------
     3  ><      ................      0.00    0.00             0.00    0.00             0.01    2.38
     1  INIT    ................      0.00    0.00             0.01   12.50             0.11    8.73
     1  GEOMET  ................      0.01    5.00             0.05   62.50             0.20   15.63
     1  INPUTA  ................      0.00    0.00             0.01   12.50             0.07    5.71
     1  MAINSY  ................      0.02   10.00             0.00    0.00             0.08    6.38
     1  SYMFIT  ................      0.00    0.00             0.00    0.00             0.01    1.11
     1  CORORT  ................      0.00    0.00             0.00    0.00             0.01    0.44
     1  SYMORB  ................      0.00    0.00             0.00    0.00             0.01    0.45
     1  FITINT  ................      0.00    0.00             0.00    0.00             0.01    0.78
     1  CLSMAT  ................      0.00    0.00             0.00    0.00             0.00    0.22
     1  ORTHON  ................      0.00    0.00             0.00    0.00             0.02    1.21
     1  ETALOW  ................      0.00    0.00             0.00    0.00             0.00    0.24
     1  GENPT   ................      0.02   10.00             0.00    0.00             0.03    2.55
     1  PTBAS   ................      0.00    0.00             0.00    0.00             0.02    1.48
     8  FOCKY   ................      0.01   45.00             0.00    0.00             0.07   41.89
     8  FOCKTR  ................      0.00    0.00             0.00    0.00             0.00    0.35
     8  FOCKNM  ................      0.00    0.00             0.00    0.00             0.00    0.02
     8  SDIIS   ................      0.00   10.00             0.00   12.50             0.00    0.58
     8  EMERGE  ................      0.00    5.00             0.00    0.00             0.01    3.85
     1  COREPS  ................      0.01    5.00             0.00    0.00             0.02    1.20
     1  POPAN   ................      0.00    0.00             0.00    0.00             0.01    0.97
     1  DEBYE   ................      0.00    0.00             0.00    0.00             0.00    0.16
     1  QMPOT   ................      0.00    0.00             0.00    0.00             0.03    2.09
     1  EXIT PROCEDURE .........      0.02   10.00             0.00    0.00             0.02    1.59


 Currently Open Files (EXIT00)
 ====================

 Unit    Access Format  Status   Type       Ident (file)
 -------------------------------------------------------
   3      SEQ    FORM   TRANSP  NORMAL      LOGFILE
                                          ( logfile )


 Buffered I/O statistics
 =======================
 Memory available:                    268435456
 Number of records fitting in memory:     64527
 Input :   1.3% of                         3830  *4k bytes
 Output:  10.3% of                         1959  *4k bytes
 Records from serial files evicted:           0
                    others evicted:           0
 Hash table lookups:      15695 with          0 conflicts (  0.00%)

 ***************************************************************************************************
 (LOGFILE)
 <Dec17-2013> <08:27:32>  DIRAC 2012.01  RunTime: Dec17-2013 08:27:32  Nodes: 1  Procs: 1
 <Dec17-2013> <08:27:33>  NORMAL TERMINATION
 <Dec17-2013> <08:27:33>  END
 <Dec17-2013> <08:27:33>  ADF 2012.01  RunTime: Dec17-2013 08:27:33  Nodes: 1  Procs: 1
 <Dec17-2013> <08:27:33>  Silver (TZP, 3d frozen)
 <Dec17-2013> <08:27:33>  RunType   : CREATE
 <Dec17-2013> <08:27:34>  Net Charge: 0 (Nuclei minus Electrons)
 <Dec17-2013> <08:27:34>  Symmetry  : ATOM
 <Dec17-2013> <08:27:34>  >>>> CORORT
 <Dec17-2013> <08:27:34>  >>>> FITINT
 <Dec17-2013> <08:27:34>  >>>> CLSMAT
 <Dec17-2013> <08:27:34>  >>>> ORTHON
 <Dec17-2013> <08:27:34>  >>>> GENPT
 <Dec17-2013> <08:27:34>  Acc.Num.Int.=  10.000
 <Dec17-2013> <08:27:34>  Block Length=  94
 <Dec17-2013> <08:27:34>  >>>> PTBAS
 <Dec17-2013> <08:27:34>  >>>> CYCLE
 <Dec17-2013> <08:27:34>    1
 <Dec17-2013> <08:27:34>    2  ErrMat   0.02728591  MaxEl  0.00887264
 <Dec17-2013> <08:27:34>    3  ErrMat   0.05713964  MaxEl -0.01729688
 <Dec17-2013> <08:27:34>    4  ErrMat   0.00229105  MaxEl -0.00078765
 <Dec17-2013> <08:27:34>    5  ErrMat   0.00007667  MaxEl  0.00002781
 <Dec17-2013> <08:27:34>    6  ErrMat   0.00000030  MaxEl -0.00000012
 <Dec17-2013> <08:27:34>    7  ErrMat   0.00000001  MaxEl  0.00000000
 <Dec17-2013> <08:27:34>  SCF converged
 <Dec17-2013> <08:27:34>    8  ErrMat   0.00000000  MaxEl  0.00000000
 <Dec17-2013> <08:27:34>   Solutions with partially occupied orbitals may not be
 <Dec17-2013> <08:27:34>   lowest in energy. You might consider lowering the
 <Dec17-2013> <08:27:34>   symmetry in the input and explicitly specifying integer
 <Dec17-2013> <08:27:34>   occupations. In that case always check that you obtain
 <Dec17-2013> <08:27:34>   an aufbau solution.
 <Dec17-2013> <08:27:34>  >>>> POPAN
 <Dec17-2013> <08:27:34>  >>>> DEBYE
 <Dec17-2013> <08:27:34>  NORMAL TERMINATION
 <Dec17-2013> <08:27:35>  END
Platform-MPI licensed for SCM.


 Parallel Execution: Process Information
 ==============================================================================
 Rank   Node Name                              NodeID   MyNodeRank  NodeMaster
    0   elf27.beocat                              0          0          0
    1   elf27.beocat                              0          1         -1
    2   elf27.beocat                              0          2         -1
    3   elf27.beocat                              0          3         -1
 ==============================================================================


(INPUT FILE)
title Au20 cluster optimization with 4f frozen core - td structure

RELATIVISTIC SCALAR ZORA SAPA

SCF
Converge 1e-8
Iterations 300
END

Solvation
Solv Name =Water
END

INTEGRATION 6.0

::Unrestricted
::CHARGE +1

XC
GGA Becke Perdew
END

GEOMETRY
::TS
converge E=1e-4 grad=1e-3
smooth aggressive
iterations 100
::frequencies
END

Atoms
Ag        -0.94633001    -0.40431401    -0.25752401
Ag        -0.86784703    -0.36629701    -3.29317904
Ag         0.20264500     2.02559996    -1.75966299
Ag         1.66097403    -0.41400301    -1.61679900
END

Fragments
Ag t21.Ag
End
end input

 *******************************************************************************
 *                                                                             *
 *  -------------------------------------                                      *
 *   Amsterdam Density Functional  (ADF)         2012.01   January 26, 2012    *
 *  -------------------------------------                                      *
 *                                               Build 201201262307            *
 *                                                                             *
 *                                                                             *
 *                              =================                              *
 *                              |               |                              *
 *                              |     A D F     |                              *
 *                              |               |                              *
 *                              =================                              *
 *                                                                             *
 *                                                                             *
 *   Online information and documentation:  http://www.scm.com                 *
 *   E-mail:  support@scm.com   info@scm.com                                   *
 *                                                                             *
 *   Scientific publications using ADF results must be properly referenced     *
 *   See the User Manuals (or the web site) for recommended citations          *
 *   The terms and conditions of the End User License Agreement apply to       *
 *   the use of ADF, http://www.scm.com/Sales/LicAgreement.html                *
 *                                                                             *
 **********************  pentium64_linux / platform_mpi  ***********************
 
 ADF 2012.01  RunTime: Dec17-2013 08:27:39  Nodes: 1  Procs: 4

 Temporary files are created in /tmp/1359626.1.batch.q/kid_0.0278cJ


Communication costs MPI_COMM_WORLD:    1.336 usec per message,   0.0127 usec per 8-byte item
Communication costs for intra-node:    1.326 usec per message,   0.0131 usec per 8-byte item

 Au20 cluster optimization with 4f frozen core - td structure



 ===========================
 A T T A C H E D   F I L E S
 ===========================
  



 ===============================
 M O D E L   P A R A M E T E R S
 ===============================
  
 DENSITY FUNCTIONAL POTENTIAL (scf)
    LDA:                               VWN                                      
    Gradient Corrections:              Becke88 Perdew86                        == Not Default ==

 SPIN  (restricted / unrestr.)
    Molecule:                          Restricted                               
    Fragments:                         Restricted                               

 OTHER ASPECTS
    Relativistic Corrections:          scalar (ZORA,SAPA)                       *** SPECIAL ***

    Nuclear Charge Density Model:      Point Charge Nuclei                                                                                                                                                                                     
    Core Treatment:                    Frozen Orbital(s)                        

    Electric Field:                    ---                                      

    Hyperfine or Zeeman Interaction:   ---                                      

 SOLVATION
-------------------------------------------

  The Solvent-Excluding surface is calculated

       Division Level for Surface Triangles (NDIV)                  3
       Final Division Level for Triangles (NFDIV)                   1
       Radius of the Solvent (RSOL)                           1.93000 angstr
       Minimum Radius for new sphere (RMINSOLV)               0.50000 angstr
       Overlapping Factor (OFAC)                              0.80000
       New spheres will be assigned to the initials using ASSG1

  Dielectric Constant (EPSL)                                 78.39000

       COSMO equation is solved iteratively-               conjugate-gradient

       Maximun of Iterations for Charges (NCIX)                  1000
       Criterion for Charge convergence (CCNV)                1.0E-10

  COSMO charges included variationally in SCF

       COSMO included at every SCF cycle

  Geometry-dependent empirical factor                         0.00000

  C-Matrix calculated in cspmtx

  In cspmtx, C-Matrix calculated using fitted potential

-------------------------------------------



 Fragment File(s)
 ----------------
 Ag:
         file : t21.Ag
         jobid: ADF 2012.01  RunTime: Dec17-2013 08:27:33  Nodes: 1  Procs: 1
         title: Silver (TZP, 3d frozen)



                                   *********************************************
                                   *  R U N   T Y P E : GEOMETRY OPTIMIZATION  *
                                   *********************************************
  



 ===============
 G E O M E T R Y  ***  3D  Molecule  ***
 ===============
  

 ATOMS
 =====                            X Y Z                    CHARGE                     RADIUS
                                (Angstrom)             Nucl     +Core       At.Mass (Angstrom)
                       --------------------------    ----------------       ------- ----------
    1  Ag             -0.9463   -0.4043   -0.2575     47.00     19.00      106.9051    2.0250
    2  Ag             -0.8678   -0.3663   -3.2932     47.00     19.00      106.9051    2.0250
    3  Ag              0.2026    2.0256   -1.7597     47.00     19.00      106.9051    2.0250
    4  Ag              1.6610   -0.4140   -1.6168     47.00     19.00      106.9051    2.0250


 FRAGMENTS
 =========                                     Atoms in this Fragment     Cart. coord.s (Angstrom)
                                               -------------------------------------------------------
    1  Ag                                                1  Ag          -0.9463   -0.4043   -0.2575
    2  Ag                                                2  Ag          -0.8678   -0.3663   -3.2932
    3  Ag                                                3  Ag           0.2026    2.0256   -1.7597
    4  Ag                                                4  Ag           1.6610   -0.4140   -1.6168


 Interatomic Distance Matrix (Angstrom)
 --------------------------------------

   1)     0.000
   2)     3.037   0.000
   3)     3.079   3.036   0.000
   4)     2.940   3.034   2.846   0.000

 Min. Distance =    2.8458
 Max. Distance =    3.0791



 =====================================
 S Y M M E T R Y ,   E L E C T R O N S
 =====================================
  
 Symmetry: NOSYM

 Irreducible Representations, including subspecies
 -------------------------------------------------
 A


 Configuration of Valence Electrons
 ==================================
 ( determined in the SCF procedure )

 Total:   76

 Net Charge: 0 (Nuclei minus Electrons)

 Aufbau principle for MO occupations will be applied through SCF cycle no.      30
 Thereafter, the program will assign electrons to MOs that are spatially
 similar to the occupied MOs in a "reference" cycle ("KeepOrbitals").
 The reference cycle is always the PREVIOUS cycle: it will evolve with
 the SCF procedure.
1
 ***************************************************************************************************



                                      ****************************************
                                      *  B U I L D : (Fragments, Functions)  *
                                      ****************************************
  



 =======
 S F O s  ***  (Symmetrized Fragment Orbitals)  ***
 =======
  
 SFOs are linear combinations of (valence) Fragment Orbitals (FOs), such that the SFOs transform as the
 irreducible representations of the (molecular) symmetry group. Each SFO is therefore characterized by
 an irrep of the molecule and by a few (or only one) generating FOs.
 The SFOs constitute a symmetry-adapted basis for the Fock matrix. The MO eigenvector coefficients in
 this basis provide a direct interpretation of the MOs in terms of Frontier Orbital Theory.

 The SFOs are combined with auxiliary Core Functions (CFs) to ensure orthogonalization on the (frozen)
 Core Orbitals (COs). The Core-orthogonalized SFOs (CSFOs) constitute the true Fock basis.

 The FOs, and hence also the (C)SFOs are combinations of the elementary basis functions (BAS). The basis
 functions that participate in the description of the SFOs depend on the irrep. The indices of the
 involved functions are printed below for each irrep.
 (The complete list of primitive basis functions is printed in another section)

 Total nr. of (C)SFOs (summation over all irreps) :   128

 NOTE: a (C)SFO that is defined as a combination of more than one FO is usually NOT normalized.



                                       === A ===
 Nr. of SFOs :  128
 Cartesian basis functions that participate in this irrep (total number =   200) :
      1     2     3     4     7     5     8     6     9    10
     11    12    13    14    15    51    52    53    54    57
     55    58    56    59    60    61    62    63    64    65
    101   102   103   104   107   105   108   106   109   110
    111   112   113   114   115   151   152   153   154   157
    155   158   156   159   160   161   162   163   164   165
     16    17    18    19    20    21    24    27    48    22
     25    28    49    23    26    29    50    30    36    42
     31    37    43    32    38    44    33    39    45    34
     40    46    35    41    47    66    67    68    69    70
     71    74    77    98    72    75    78    99    73    76
     79   100    80    86    92    81    87    93    82    88
     94    83    89    95    84    90    96    85    91    97
    116   117   118   119   120   121   124   127   148   122
    125   128   149   123   126   129   150   130   136   142
    131   137   143   132   138   144   133   139   145   134
    140   146   135   141   147   166   167   168   169   170
    171   174   177   198   172   175   178   199   173   176
    179   200   180   186   192   181   187   193   182   188
    194   183   189   195   184   190   196   185   191   197

    SFO  (index         Fragment          Generating    Expansion in Fragment Orbitals
  indx  incl.CFs)   Occup   Orb.Energy   FragmentType  Coeff.   Orbital     on Fragment
 --------------------------------------------------------------------------------------
     1      61      2.000      -3.490 au  Ag            1.00      1 S               1
                        (     -94.963 eV)
     2      62      1.000      -0.167 au  Ag            1.00      2 S               1
                        (      -4.550 eV)
     3      63       --         0.049 au  Ag            1.00      3 S               1
                        (       1.341 eV)
     4      64       --         0.549 au  Ag            1.00      4 S               1
                        (      14.940 eV)
     5      65       --         4.196 au  Ag            1.00      5 S               1
                        (     114.167 eV)
     6      66      2.000      -2.166 au  Ag            1.00      1 P:x             1
                        (     -58.952 eV)
     7      67       --         0.001 au  Ag            1.00      2 P:x             1
                        (       0.034 eV)
     8      68       --         0.948 au  Ag            1.00      3 P:x             1
                        (      25.801 eV)
     9      69       --         6.323 au  Ag            1.00      4 P:x             1
                        (     172.071 eV)
    10      70      2.000      -2.166 au  Ag            1.00      1 P:y             1
                        (     -58.952 eV)
    11      71       --         0.001 au  Ag            1.00      2 P:y             1
                        (       0.034 eV)
    12      72       --         0.948 au  Ag            1.00      3 P:y             1
                        (      25.801 eV)
    13      73       --         6.323 au  Ag            1.00      4 P:y             1
                        (     172.071 eV)
    14      74      2.000      -2.166 au  Ag            1.00      1 P:z             1
                        (     -58.952 eV)
    15      75       --         0.001 au  Ag            1.00      2 P:z             1
                        (       0.034 eV)
    16      76       --         0.948 au  Ag            1.00      3 P:z             1
                        (      25.801 eV)
    17      77       --         6.323 au  Ag            1.00      4 P:z             1
                        (     172.071 eV)
    18      78      2.000      -0.278 au  Ag            1.00      1 D:z2            1
                        (      -7.554 eV)
    19      79       --         0.294 au  Ag            1.00      2 D:z2            1
                        (       8.004 eV)
    20      80       --         2.229 au  Ag            1.00      3 D:z2            1
                        (      60.651 eV)
    21      81      2.000      -0.278 au  Ag            1.00      1 D:x2-y2         1
                        (      -7.554 eV)
    22      82       --         0.294 au  Ag            1.00      2 D:x2-y2         1
                        (       8.004 eV)
    23      83       --         2.229 au  Ag            1.00      3 D:x2-y2         1
                        (      60.651 eV)
    24      84      2.000      -0.278 au  Ag            1.00      1 D:xy            1
                        (      -7.554 eV)
    25      85       --         0.294 au  Ag            1.00      2 D:xy            1
                        (       8.004 eV)
    26      86       --         2.229 au  Ag            1.00      3 D:xy            1
                        (      60.651 eV)
    27      87      2.000      -0.278 au  Ag            1.00      1 D:xz            1
                        (      -7.554 eV)
    28      88       --         0.294 au  Ag            1.00      2 D:xz            1
                        (       8.004 eV)
    29      89       --         2.229 au  Ag            1.00      3 D:xz            1
                        (      60.651 eV)
    30      90      2.000      -0.278 au  Ag            1.00      1 D:yz            1
                        (      -7.554 eV)
    31      91       --         0.294 au  Ag            1.00      2 D:yz            1
                        (       8.004 eV)
    32      92       --         2.229 au  Ag            1.00      3 D:yz            1
                        (      60.651 eV)
    33      93      2.000      -3.490 au  Ag            1.00      1 S               2
                        (     -94.963 eV)
    34      94      1.000      -0.167 au  Ag            1.00      2 S               2
                        (      -4.550 eV)
    35      95       --         0.049 au  Ag            1.00      3 S               2
                        (       1.341 eV)
    36      96       --         0.549 au  Ag            1.00      4 S               2
                        (      14.940 eV)
    37      97       --         4.196 au  Ag            1.00      5 S               2
                        (     114.167 eV)
    38      98      2.000      -2.166 au  Ag            1.00      1 P:x             2
                        (     -58.952 eV)
    39      99       --         0.001 au  Ag            1.00      2 P:x             2
                        (       0.034 eV)
    40     100       --         0.948 au  Ag            1.00      3 P:x             2
                        (      25.801 eV)
    41     101       --         6.323 au  Ag            1.00      4 P:x             2
                        (     172.071 eV)
    42     102      2.000      -2.166 au  Ag            1.00      1 P:y             2
                        (     -58.952 eV)
    43     103       --         0.001 au  Ag            1.00      2 P:y             2
                        (       0.034 eV)
    44     104       --         0.948 au  Ag            1.00      3 P:y             2
                        (      25.801 eV)
    45     105       --         6.323 au  Ag            1.00      4 P:y             2
                        (     172.071 eV)
    46     106      2.000      -2.166 au  Ag            1.00      1 P:z             2
                        (     -58.952 eV)
    47     107       --         0.001 au  Ag            1.00      2 P:z             2
                        (       0.034 eV)
    48     108       --         0.948 au  Ag            1.00      3 P:z             2
                        (      25.801 eV)
    49     109       --         6.323 au  Ag            1.00      4 P:z             2
                        (     172.071 eV)
    50     110      2.000      -0.278 au  Ag            1.00      1 D:z2            2
                        (      -7.554 eV)
    51     111       --         0.294 au  Ag            1.00      2 D:z2            2
                        (       8.004 eV)
    52     112       --         2.229 au  Ag            1.00      3 D:z2            2
                        (      60.651 eV)
    53     113      2.000      -0.278 au  Ag            1.00      1 D:x2-y2         2
                        (      -7.554 eV)
    54     114       --         0.294 au  Ag            1.00      2 D:x2-y2         2
                        (       8.004 eV)
    55     115       --         2.229 au  Ag            1.00      3 D:x2-y2         2
                        (      60.651 eV)
    56     116      2.000      -0.278 au  Ag            1.00      1 D:xy            2
                        (      -7.554 eV)
    57     117       --         0.294 au  Ag            1.00      2 D:xy            2
                        (       8.004 eV)
    58     118       --         2.229 au  Ag            1.00      3 D:xy            2
                        (      60.651 eV)
    59     119      2.000      -0.278 au  Ag            1.00      1 D:xz            2
                        (      -7.554 eV)
    60     120       --         0.294 au  Ag            1.00      2 D:xz            2
                        (       8.004 eV)
    61     121       --         2.229 au  Ag            1.00      3 D:xz            2
                        (      60.651 eV)
    62     122      2.000      -0.278 au  Ag            1.00      1 D:yz            2
                        (      -7.554 eV)
    63     123       --         0.294 au  Ag            1.00      2 D:yz            2
                        (       8.004 eV)
    64     124       --         2.229 au  Ag            1.00      3 D:yz            2
                        (      60.651 eV)
    65     125      2.000      -3.490 au  Ag            1.00      1 S               3
                        (     -94.963 eV)
    66     126      1.000      -0.167 au  Ag            1.00      2 S               3
                        (      -4.550 eV)
    67     127       --         0.049 au  Ag            1.00      3 S               3
                        (       1.341 eV)
    68     128       --         0.549 au  Ag            1.00      4 S               3
                        (      14.940 eV)
    69     129       --         4.196 au  Ag            1.00      5 S               3
                        (     114.167 eV)
    70     130      2.000      -2.166 au  Ag            1.00      1 P:x             3
                        (     -58.952 eV)
    71     131       --         0.001 au  Ag            1.00      2 P:x             3
                        (       0.034 eV)
    72     132       --         0.948 au  Ag            1.00      3 P:x             3
                        (      25.801 eV)
    73     133       --         6.323 au  Ag            1.00      4 P:x             3
                        (     172.071 eV)
    74     134      2.000      -2.166 au  Ag            1.00      1 P:y             3
                        (     -58.952 eV)
    75     135       --         0.001 au  Ag            1.00      2 P:y             3
                        (       0.034 eV)
    76     136       --         0.948 au  Ag            1.00      3 P:y             3
                        (      25.801 eV)
    77     137       --         6.323 au  Ag            1.00      4 P:y             3
                        (     172.071 eV)
    78     138      2.000      -2.166 au  Ag            1.00      1 P:z             3
                        (     -58.952 eV)
    79     139       --         0.001 au  Ag            1.00      2 P:z             3
                        (       0.034 eV)
    80     140       --         0.948 au  Ag            1.00      3 P:z             3
                        (      25.801 eV)
    81     141       --         6.323 au  Ag            1.00      4 P:z             3
                        (     172.071 eV)
    82     142      2.000      -0.278 au  Ag            1.00      1 D:z2            3
                        (      -7.554 eV)
    83     143       --         0.294 au  Ag            1.00      2 D:z2            3
                        (       8.004 eV)
    84     144       --         2.229 au  Ag            1.00      3 D:z2            3
                        (      60.651 eV)
    85     145      2.000      -0.278 au  Ag            1.00      1 D:x2-y2         3
                        (      -7.554 eV)
    86     146       --         0.294 au  Ag            1.00      2 D:x2-y2         3
                        (       8.004 eV)
    87     147       --         2.229 au  Ag            1.00      3 D:x2-y2         3
                        (      60.651 eV)
    88     148      2.000      -0.278 au  Ag            1.00      1 D:xy            3
                        (      -7.554 eV)
    89     149       --         0.294 au  Ag            1.00      2 D:xy            3
                        (       8.004 eV)
    90     150       --         2.229 au  Ag            1.00      3 D:xy            3
                        (      60.651 eV)
    91     151      2.000      -0.278 au  Ag            1.00      1 D:xz            3
                        (      -7.554 eV)
    92     152       --         0.294 au  Ag            1.00      2 D:xz            3
                        (       8.004 eV)
    93     153       --         2.229 au  Ag            1.00      3 D:xz            3
                        (      60.651 eV)
    94     154      2.000      -0.278 au  Ag            1.00      1 D:yz            3
                        (      -7.554 eV)
    95     155       --         0.294 au  Ag            1.00      2 D:yz            3
                        (       8.004 eV)
    96     156       --         2.229 au  Ag            1.00      3 D:yz            3
                        (      60.651 eV)
    97     157      2.000      -3.490 au  Ag            1.00      1 S               4
                        (     -94.963 eV)
    98     158      1.000      -0.167 au  Ag            1.00      2 S               4
                        (      -4.550 eV)
    99     159       --         0.049 au  Ag            1.00      3 S               4
                        (       1.341 eV)
   100     160       --         0.549 au  Ag            1.00      4 S               4
                        (      14.940 eV)
   101     161       --         4.196 au  Ag            1.00      5 S               4
                        (     114.167 eV)
   102     162      2.000      -2.166 au  Ag            1.00      1 P:x             4
                        (     -58.952 eV)
   103     163       --         0.001 au  Ag            1.00      2 P:x             4
                        (       0.034 eV)
   104     164       --         0.948 au  Ag            1.00      3 P:x             4
                        (      25.801 eV)
   105     165       --         6.323 au  Ag            1.00      4 P:x             4
                        (     172.071 eV)
   106     166      2.000      -2.166 au  Ag            1.00      1 P:y             4
                        (     -58.952 eV)
   107     167       --         0.001 au  Ag            1.00      2 P:y             4
                        (       0.034 eV)
   108     168       --         0.948 au  Ag            1.00      3 P:y             4
                        (      25.801 eV)
   109     169       --         6.323 au  Ag            1.00      4 P:y             4
                        (     172.071 eV)
   110     170      2.000      -2.166 au  Ag            1.00      1 P:z             4
                        (     -58.952 eV)
   111     171       --         0.001 au  Ag            1.00      2 P:z             4
                        (       0.034 eV)
   112     172       --         0.948 au  Ag            1.00      3 P:z             4
                        (      25.801 eV)
   113     173       --         6.323 au  Ag            1.00      4 P:z             4
                        (     172.071 eV)
   114     174      2.000      -0.278 au  Ag            1.00      1 D:z2            4
                        (      -7.554 eV)
   115     175       --         0.294 au  Ag            1.00      2 D:z2            4
                        (       8.004 eV)
   116     176       --         2.229 au  Ag            1.00      3 D:z2            4
                        (      60.651 eV)
   117     177      2.000      -0.278 au  Ag            1.00      1 D:x2-y2         4
                        (      -7.554 eV)
   118     178       --         0.294 au  Ag            1.00      2 D:x2-y2         4
                        (       8.004 eV)
   119     179       --         2.229 au  Ag            1.00      3 D:x2-y2         4
                        (      60.651 eV)
   120     180      2.000      -0.278 au  Ag            1.00      1 D:xy            4
                        (      -7.554 eV)
   121     181       --         0.294 au  Ag            1.00      2 D:xy            4
                        (       8.004 eV)
   122     182       --         2.229 au  Ag            1.00      3 D:xy            4
                        (      60.651 eV)
   123     183      2.000      -0.278 au  Ag            1.00      1 D:xz            4
                        (      -7.554 eV)
   124     184       --         0.294 au  Ag            1.00      2 D:xz            4
                        (       8.004 eV)
   125     185       --         2.229 au  Ag            1.00      3 D:xz            4
                        (      60.651 eV)
   126     186      2.000      -0.278 au  Ag            1.00      1 D:yz            4
                        (      -7.554 eV)
   127     187       --         0.294 au  Ag            1.00      2 D:yz            4
                        (       8.004 eV)
   128     188       --         2.229 au  Ag            1.00      3 D:yz            4
                        (      60.651 eV)



 ================================
 (Slater-type)  F U N C T I O N S  ***  (Basis and Fit)  ***
 ================================
  

 Atom Type    1  (Ag)
 ==============

 Valence Basis Sets:  18
 -----------------------
   1 S   30.800000
   2 S   20.300000
   3 S    9.550000
   2 P   21.100000
   3 P   10.100000
   3 D   11.650000
   4 S    6.350000
   4 S    4.050000
   5 S    2.600000
   5 S    1.550000
   5 S    0.950000
   4 P    6.150000
   4 P    4.150000
   4 P    2.900000
   4 D    4.750000
   4 D    2.600000
   4 D    1.380000
   5 P    1.550000

 Frozen Core Shells
 ------------------
    S:  3
    P:  2
    D:  1

 Charge Fitting Sets (for the computation of the Coulomb Potential):  51
 -----------------------------------------------------------------------
   1 S   61.600000
   1 S   36.350000
   2 S   39.760000
   3 S   38.850000
   3 S   27.540000
   4 S   25.820000
   4 S   19.060000
   5 S   17.540000
   5 S   13.330000
   6 S   12.140000
   6 S    9.440000
   7 S    8.550000
   7 S    6.760000
   8 S    6.110000
   8 S    4.900000
   8 S    3.930000
   9 S    3.550000
   9 S    2.880000
   9 S    2.340000
   9 S    1.900000
   2 P   51.900000
   3 P   41.280000
   4 P   32.450000
   5 P   25.520000
   6 P   20.150000
   6 P   13.650000
   7 P   10.840000
   7 P    7.550000
   8 P    6.030000
   8 P    4.290000
   9 P    3.450000
   9 P    2.500000
   3 D   42.450000
   4 D   30.180000
   5 D   21.700000
   6 D   15.790000
   6 D    9.890000
   7 D    7.280000
   7 D    4.710000
   8 D    3.510000
   8 D    2.330000
   4 F   32.800000
   5 F   21.490000
   6 F   14.360000
   6 F    8.280000
   7 F    5.640000
   7 F    3.380000
   5 G   23.300000
   6 G   11.600000
   7 G    6.010000
   7 G    2.760000


 BAS: List of all Elementary Cartesian Basis Functions
 =====================================================

 The numbering in the list below (to the right of the function characteristics) is referred
 to in print-outs of MO eigenvectors and Mulliken populations in the BAS representation
 (as contrasted to the SFO representation).

 Notes:
 1. The functions are characterized by a polynomial prefactor (powers of x,y,z and r) and
    an exponential decay factor alpha.
 2. Since the basis sets are specific for an atom TYPE, the individual functions occur on
    all atoms of that type.
 3. The word 'Core' in the left margin signals that it is a Core Function (CF) : not a
    degree of freedom in the valence set, but only used to ensure orthogonalization of
    the other valence basis functions on the frozen Core Orbitals.


 (power of) X  Y  Z  R     Alpha  on Atom
            ==========     =====     ==========

 Ag                                   1    2    3    4
                                  ---------------------------------------------------------------------------
    Core    0  0  0  0    30.800      1   51  101  151
    Core    0  0  0  1    20.300      2   52  102  152
    Core    0  0  0  2     9.550      3   53  103  153
    Core    1  0  0  0    21.100      4   54  104  154
    Core    0  1  0  0    21.100      5   55  105  155
    Core    0  0  1  0    21.100      6   56  106  156
    Core    1  0  0  1    10.100      7   57  107  157
    Core    0  1  0  1    10.100      8   58  108  158
    Core    0  0  1  1    10.100      9   59  109  159
    Core    2  0  0  0    11.650     10   60  110  160
    Core    1  1  0  0    11.650     11   61  111  161
    Core    1  0  1  0    11.650     12   62  112  162
    Core    0  2  0  0    11.650     13   63  113  163
    Core    0  1  1  0    11.650     14   64  114  164
    Core    0  0  2  0    11.650     15   65  115  165
            0  0  0  3     6.350     16   66  116  166
            0  0  0  3     4.050     17   67  117  167
            0  0  0  4     2.600     18   68  118  168
            0  0  0  4     1.550     19   69  119  169
            0  0  0  4     0.950     20   70  120  170
            1  0  0  2     6.150     21   71  121  171
            0  1  0  2     6.150     22   72  122  172
            0  0  1  2     6.150     23   73  123  173
            1  0  0  2     4.150     24   74  124  174
            0  1  0  2     4.150     25   75  125  175
            0  0  1  2     4.150     26   76  126  176
            1  0  0  2     2.900     27   77  127  177
            0  1  0  2     2.900     28   78  128  178
            0  0  1  2     2.900     29   79  129  179
            2  0  0  1     4.750     30   80  130  180
            1  1  0  1     4.750     31   81  131  181
            1  0  1  1     4.750     32   82  132  182
            0  2  0  1     4.750     33   83  133  183
            0  1  1  1     4.750     34   84  134  184
            0  0  2  1     4.750     35   85  135  185
            2  0  0  1     2.600     36   86  136  186
            1  1  0  1     2.600     37   87  137  187
            1  0  1  1     2.600     38   88  138  188
            0  2  0  1     2.600     39   89  139  189
            0  1  1  1     2.600     40   90  140  190
            0  0  2  1     2.600     41   91  141  191
            2  0  0  1     1.380     42   92  142  192
            1  1  0  1     1.380     43   93  143  193
            1  0  1  1     1.380     44   94  144  194
            0  2  0  1     1.380     45   95  145  195
            0  1  1  1     1.380     46   96  146  196
            0  0  2  1     1.380     47   97  147  197
            1  0  0  3     1.550     48   98  148  198
            0  1  0  3     1.550     49   99  149  199
            0  0  1  3     1.550     50  100  150  200

 Total number of charge fitting functions (nprimf)       920
 Total number of Cartesian basis functions (naos)        200
 Total number of Cartesian core functions  (ncos)         60

           Primitive Internal Coordinates (atoms in internal order)
-------------------------------------------------------------------------------
    index    type      i       j       k       l   value(A,deg)     strength
-------------------------------------------------------------------------------
       1     bnd       3       4       0       0     2.84583842     0.93999570
       2     bnd       2       4       0       0     3.03437998     0.87613831
       3     bnd       2       3       0       0     3.03624699     0.87552817
       4     bnd       1       4       0       0     2.94036677     0.90741829
       5     bnd       1       3       0       0     3.07913088     0.86162994
       6     bnd       1       2       0       0     3.03690736     0.87531246
       7     ang       4       1       3       0    56.37171925     0.75400776
       8     ang       4       1       2       0    60.98984474     0.79282087
       9     ang       3       1       2       0    59.52474629     0.76286444
      10     ang       4       2       3       0    55.91132204     0.74339895
      11     ang       4       2       1       0    57.93413578     0.75815546
      12     ang       3       2       1       0    60.92932416     0.77836989
      13     ang       4       3       2       0    62.01113634     0.81381623
      14     ang       4       3       1       0    59.35090294     0.78932709
      15     ang       2       3       1       0    59.54592955     0.76310171
      16     ang       3       4       2       0    62.07754162     0.81453364
      17     ang       3       4       1       0    64.27737781     0.84302591
      18     ang       2       4       1       0    61.07601948     0.79376634
      19     dih       2       3       4       1   -69.37420174     0.61151356
      20     dih       1       3       4       2    69.37420174     0.55861522
      21     dih       3       2       4       1    74.43382868     0.52596089
      22     dih       1       2       4       3   -74.43382868     0.56015960
      23     dih       4       2       3       1   -69.07079806     0.49289124
      24     dih       1       2       3       4    69.07079806     0.57458841
      25     dih       3       1       4       2   -70.87348824     0.52001422
      26     dih       2       1       4       3    70.87348824     0.60626219
      27     dih       4       1       3       2    73.47662785     0.51285792
      28     dih       2       1       3       4   -73.47662785     0.54619644
      29     dih       4       1       2       3   -65.89333934     0.55004716
      30     dih       3       1       2       4    65.89333934     0.50251886


 Coordinates (Cartesian)
 =======================

     Atom                    bohr                                 angstrom                 Geometric Variables
                   X           Y           Z              X           Y           Z       (0:frozen, *:LT par.)
 --------------------------------------------------------------------------------------------------------------
     1 Ag     -1.788305   -0.764043   -0.486650      -0.946330   -0.404314   -0.257524      1       2       3
     2 Ag     -1.639993   -0.692201   -6.223206      -0.867847   -0.366297   -3.293179      4       5       6
     3 Ag      0.382944    3.827829   -3.325281       0.202645    2.025600   -1.759663      7       8       9
     4 Ag      3.138786   -0.782352   -3.055307       1.660974   -0.414003   -1.616799     10      11      12
 --------------------------------------------------------------------------------------------------------------
1
 ***************************************************************************************************



                                              ***********************
                                              *  T E C H N I C A L  *
                                              ***********************
  



 =============================================================
 P A R A L L E L I Z A T I O N  and  V E C T O R I Z A T I O N
 =============================================================
  
 Nr of parallel processes:                                4
 Maximum vector length in NumInt loops:                 128



 ===============
 I O  vs.  C P U  ***  (store numerical data on disk or recalculate)  ***
 ===============
  
 Basis functions:   recalculate when needed
 Fit functions:     recalculate when needed

 IO buffersize (Mb):                                    256.000000



 ===============================
 G E O M E T R Y   U P D A T E S
 ===============================
  
 Optimization coordinates:                       Delocalized
 Optimization code branch:                       NEW
 Hessian update method:                          BFGS (Broyden-Fletcher-Goldfarb-Shanno)

 Iterative Geometry Improvements:
    Max. nr. of iterations:                        100
    Convergence criteria:
         Change in energy (hartree):                 0.0001000000
         Gradients (au/Angstrom):                    0.0010000000
         Cart/bondlength changes (Angstrom):         0.0100000000
    Max. step to take:
         Trust Radius:                               0.2000000000

 GDIIS (Geometry Direct Inversion in Iteration Space):
    First geometry cycle:                            0
    Max. number expansion vectors:                   5



 =====================
 S C F   U P D A T E S
 =====================
  
 Max. nr. of cycles:                               300
 Convergence criterion:                              0.0000000100
   secondary criterion:                              0.0010000000

 Mix parameter (when DIIS does not apply):           0.2000000000


 DIIS (Direct Inversion in Iteration Space)
    Replace damping when SCF Error is below:         0.5000000000
    Apply anyway after SCF cycle:
                                                     5
    (Max.) nr. of expansion vectors:                10

    Upperbound on expansion coefficients:            5.0000000000
    (when exceeded, IterationSpace is re-built)
    2nd Upperbound on coefficients:                 25.0000000000
    (when exceeded, simple damping will be used)



 =================
 P R E C I S I O N  ***  (General: NumInt, NeglectFunctionTails, ...)  ***
 =================
  

 NumInt:           Target precision:                 6.0000000000
 -------           Initial precision:                6.0000000000
                   Min. precision (optimization):    6.0000000000

 Neglect Functions:          Basis functions:        0.1000000000E-07
 ------------------          Fit functions:          0.1000000000E-07



 ===========================
 L I N E A R   S C A L I N G
 ===========================
  

 Cut-off radii density fit:                        0.1000000000E-09
 Overlap cut-off criterion AO matrix elements:     0.1000000000E-07
 Cut-offs for Coulomb potential and fitted density:0.1000000000E-09
 Cut-off criterion for Coulomb multipole terms:    0.1000000000E-09
 Progressive Convergence parameter:                 0.000000000    
1
[...]
 <Dec17-2013> <08:40:36>  constrained gradient max            0.01289731     0.00100000    F
 <Dec17-2013> <08:40:36>  constrained gradient rms            0.00641073     0.00066667    F
 <Dec17-2013> <08:40:36>  gradient max                        0.01289731
 <Dec17-2013> <08:40:36>  gradient rms                        0.00641073
 <Dec17-2013> <08:40:36>  cart. step max                      0.00338558     0.01000000    T
 <Dec17-2013> <08:40:36>  cart. step rms                      0.00185231     0.00666667    T
  Coordinates in Geometry Cycle 94
    Atom         X           Y           Z   (Angstrom)
    1.Ag       -1.285097   -1.143420   -0.530452
    2.Ag       -1.258989   -1.333407   -3.123302
    3.Ag        1.859741    2.871651   -1.573786
    4.Ag        0.733787    0.446163   -1.699625
 <Dec17-2013> <08:40:36>  >>>> CORORT
 <Dec17-2013> <08:40:36>  >>>> FITINT
 <Dec17-2013> <08:40:36>  >>>> CLSMAT
 <Dec17-2013> <08:40:37>  >>>> ORTHON
 <Dec17-2013> <08:40:37>  >>>> GENPT
 <Dec17-2013> <08:40:37>  Acc.Num.Int.=   6.000
 <Dec17-2013> <08:40:37>  Reusing previous cell geometry for gradient smoothing.
 <Dec17-2013> <08:40:37>  Block Length= 128
 <Dec17-2013> <08:40:37>  >>>> PTBAS
 <Dec17-2013> <08:40:37>  >>>> SURPTS
 <Dec17-2013> <08:40:37>  combining surface points...
 <Dec17-2013> <08:40:37>  >>>> CYCLE
 <Dec17-2013> <08:40:38>    1
 <Dec17-2013> <08:40:38>    2  ErrMat   0.21575587  MaxEl -0.05904013
 <Dec17-2013> <08:40:38>    3  ErrMat   0.08402625  MaxEl -0.01710833
 <Dec17-2013> <08:40:39>    4  ErrMat   0.08974006  MaxEl -0.01550771
 <Dec17-2013> <08:40:39>    5  ErrMat   0.05360888  MaxEl  0.01184741
 <Dec17-2013> <08:40:39>    6  ErrMat   0.01848524  MaxEl -0.00331223
 <Dec17-2013> <08:40:40>    7  ErrMat   0.00714826  MaxEl -0.00133751
 <Dec17-2013> <08:40:40>    8  ErrMat   0.00428384  MaxEl  0.00112496
 <Dec17-2013> <08:40:40>    9  ErrMat   0.00134174  MaxEl  0.00026529
 <Dec17-2013> <08:40:40>   10  ErrMat   0.00075444  MaxEl -0.00013771
 <Dec17-2013> <08:40:41>   11  ErrMat   0.00014880  MaxEl -0.00002980
 <Dec17-2013> <08:40:41>   12  ErrMat   0.00004304  MaxEl  0.00000671
 <Dec17-2013> <08:40:41>   13  ErrMat   0.00000777  MaxEl  0.00000157
 <Dec17-2013> <08:40:42>   14  ErrMat   0.00000213  MaxEl  0.00000038
 <Dec17-2013> <08:40:42>  SCF converged
 <Dec17-2013> <08:40:42>   15  ErrMat   0.00000029  MaxEl  0.00000006
 <Dec17-2013> <08:40:42>  >>>> TOTEN
 <Dec17-2013> <08:40:43>  >>>> POPAN
 <Dec17-2013> <08:40:43>  >>>> DEBYE
 <Dec17-2013> <08:40:43>  >>>> AMETS
 <Dec17-2013> <08:40:43>  >>>> ENGRAD
 <Dec17-2013> <08:40:44>  current energy                               -0.19048403 Hartree
 <Dec17-2013> <08:40:44>  energy change                      -0.00011082     0.00010000    F
 <Dec17-2013> <08:40:44>  constrained gradient max            0.01284264     0.00100000    F
 <Dec17-2013> <08:40:44>  constrained gradient rms            0.00636867     0.00066667    F
 <Dec17-2013> <08:40:44>  gradient max                        0.01284264
 <Dec17-2013> <08:40:44>  gradient rms                        0.00636867
 <Dec17-2013> <08:40:44>  cart. step max                      0.00336365     0.01000000    T
 <Dec17-2013> <08:40:44>  cart. step rms                      0.00184054     0.00666667    T
  Coordinates in Geometry Cycle 95
    Atom         X           Y           Z   (Angstrom)
    1.Ag       -1.285263   -1.143457   -0.528911
    2.Ag       -1.255625   -1.330874   -3.122208
    3.Ag        1.859164    2.869744   -1.573576
    4.Ag        0.731166    0.445573   -1.702470
 <Dec17-2013> <08:40:44>  >>>> CORORT
 <Dec17-2013> <08:40:44>  >>>> FITINT
 <Dec17-2013> <08:40:44>  >>>> CLSMAT
 <Dec17-2013> <08:40:45>  >>>> ORTHON
 <Dec17-2013> <08:40:45>  >>>> GENPT
 <Dec17-2013> <08:40:45>  Acc.Num.Int.=   6.000
 <Dec17-2013> <08:40:45>  Reusing previous cell geometry for gradient smoothing.
 <Dec17-2013> <08:40:45>  Block Length= 128
 <Dec17-2013> <08:40:45>  >>>> PTBAS
 <Dec17-2013> <08:40:45>  >>>> SURPTS
 <Dec17-2013> <08:40:45>  combining surface points...
 <Dec17-2013> <08:40:45>  >>>> CYCLE
 <Dec17-2013> <08:40:46>    1
 <Dec17-2013> <08:40:46>    2  ErrMat   0.21608713  MaxEl -0.05912929
 <Dec17-2013> <08:40:46>    3  ErrMat   0.08416893  MaxEl -0.01704167
 <Dec17-2013> <08:40:47>    4  ErrMat   0.09021777  MaxEl -0.01559420
 <Dec17-2013> <08:40:47>    5  ErrMat   0.05415197  MaxEl  0.01200426
 <Dec17-2013> <08:40:47>    6  ErrMat   0.01835768  MaxEl -0.00333271
 <Dec17-2013> <08:40:47>    7  ErrMat   0.00719892  MaxEl -0.00134546
 <Dec17-2013> <08:40:48>    8  ErrMat   0.00431859  MaxEl  0.00113670
 <Dec17-2013> <08:40:48>    9  ErrMat   0.00134592  MaxEl  0.00026521
 <Dec17-2013> <08:40:48>   10  ErrMat   0.00076398  MaxEl -0.00013994
 <Dec17-2013> <08:40:49>   11  ErrMat   0.00014929  MaxEl -0.00003002
 <Dec17-2013> <08:40:49>   12  ErrMat   0.00004361  MaxEl  0.00000681
 <Dec17-2013> <08:40:49>   13  ErrMat   0.00000768  MaxEl  0.00000151
 <Dec17-2013> <08:40:50>   14  ErrMat   0.00000213  MaxEl  0.00000037
 <Dec17-2013> <08:40:50>  SCF converged
 <Dec17-2013> <08:40:50>   15  ErrMat   0.00000101  MaxEl  0.00000021
 <Dec17-2013> <08:40:50>  >>>> TOTEN
 <Dec17-2013> <08:40:51>  >>>> POPAN
 <Dec17-2013> <08:40:51>  >>>> DEBYE
 <Dec17-2013> <08:40:51>  >>>> AMETS
 <Dec17-2013> <08:40:51>  >>>> ENGRAD
 <Dec17-2013> <08:40:52>  current energy                               -0.19059149 Hartree
 <Dec17-2013> <08:40:52>  energy change                      -0.00010746     0.00010000    F
 <Dec17-2013> <08:40:52>  constrained gradient max            0.01278458     0.00100000    F
 <Dec17-2013> <08:40:52>  constrained gradient rms            0.00632467     0.00066667    F
 <Dec17-2013> <08:40:52>  gradient max                        0.01278458
 <Dec17-2013> <08:40:52>  gradient rms                        0.00632467
 <Dec17-2013> <08:40:52>  cart. step max                      0.00336236     0.01000000    T
 <Dec17-2013> <08:40:52>  cart. step rms                      0.00183870     0.00666667    T
  Coordinates in Geometry Cycle 96
    Atom         X           Y           Z   (Angstrom)
    1.Ag       -1.285449   -1.143516   -0.527367
    2.Ag       -1.252263   -1.328344   -3.121108
    3.Ag        1.858601    2.867851   -1.573369
    4.Ag        0.728554    0.444995   -1.705321
 <Dec17-2013> <08:40:52>  >>>> CORORT
 <Dec17-2013> <08:40:52>  >>>> FITINT
 <Dec17-2013> <08:40:52>  >>>> CLSMAT
 <Dec17-2013> <08:40:53>  >>>> ORTHON
 <Dec17-2013> <08:40:53>  >>>> GENPT
 <Dec17-2013> <08:40:53>  Acc.Num.Int.=   6.000
 <Dec17-2013> <08:40:53>  Reusing previous cell geometry for gradient smoothing.
 <Dec17-2013> <08:40:53>  Block Length= 128
 <Dec17-2013> <08:40:53>  >>>> PTBAS
 <Dec17-2013> <08:40:53>  >>>> SURPTS
 <Dec17-2013> <08:40:53>  combining surface points...
 <Dec17-2013> <08:40:53>  >>>> CYCLE
 <Dec17-2013> <08:40:53>    1
 <Dec17-2013> <08:40:54>    2  ErrMat   0.21635221  MaxEl -0.05919809
 <Dec17-2013> <08:40:54>    3  ErrMat   0.08429032  MaxEl -0.01697387
 <Dec17-2013> <08:40:54>    4  ErrMat   0.09068927  MaxEl -0.01567902
 <Dec17-2013> <08:40:55>    5  ErrMat   0.05468652  MaxEl  0.01215845
 <Dec17-2013> <08:40:55>    6  ErrMat   0.01822583  MaxEl -0.00335185
 <Dec17-2013> <08:40:55>    7  ErrMat   0.00724577  MaxEl -0.00135292
 <Dec17-2013> <08:40:55>    8  ErrMat   0.00435260  MaxEl  0.00114798
 <Dec17-2013> <08:40:56>    9  ErrMat   0.00134948  MaxEl  0.00026498
 <Dec17-2013> <08:40:56>   10  ErrMat   0.00077320  MaxEl -0.00014220
 <Dec17-2013> <08:40:57>   11  ErrMat   0.00014961  MaxEl -0.00003015
 <Dec17-2013> <08:40:57>   12  ErrMat   0.00004409  MaxEl  0.00000689
 <Dec17-2013> <08:40:57>   13  ErrMat   0.00000786  MaxEl  0.00000157
 <Dec17-2013> <08:40:58>   14  ErrMat   0.00000212  MaxEl  0.00000039
 <Dec17-2013> <08:40:58>  SCF converged
 <Dec17-2013> <08:40:58>   15  ErrMat   0.00000096  MaxEl -0.00000017
 <Dec17-2013> <08:40:58>  >>>> TOTEN
 <Dec17-2013> <08:40:59>  >>>> POPAN
 <Dec17-2013> <08:40:59>  >>>> DEBYE
 <Dec17-2013> <08:40:59>  >>>> AMETS
 <Dec17-2013> <08:40:59>  >>>> ENGRAD
 <Dec17-2013> <08:41:00>  current energy                               -0.19069772 Hartree
 <Dec17-2013> <08:41:00>  energy change                      -0.00010622     0.00010000    F
 <Dec17-2013> <08:41:00>  constrained gradient max            0.01273017     0.00100000    F
 <Dec17-2013> <08:41:00>  constrained gradient rms            0.00627955     0.00066667    F
 <Dec17-2013> <08:41:00>  gradient max                        0.01273017
 <Dec17-2013> <08:41:00>  gradient rms                        0.00627955
 <Dec17-2013> <08:41:00>  cart. step max                      0.00335282     0.01000000    T
 <Dec17-2013> <08:41:00>  cart. step rms                      0.00183421     0.00666667    T
  Coordinates in Geometry Cycle 97
    Atom         X           Y           Z   (Angstrom)
    1.Ag       -1.285653   -1.143592   -0.525821
    2.Ag       -1.248910   -1.325832   -3.120004
    3.Ag        1.858056    2.865976   -1.573155
    4.Ag        0.725949    0.444434   -1.708185
 <Dec17-2013> <08:41:00>  >>>> CORORT
 <Dec17-2013> <08:41:00>  >>>> FITINT
 <Dec17-2013> <08:41:00>  >>>> CLSMAT
 <Dec17-2013> <08:41:01>  >>>> ORTHON
 <Dec17-2013> <08:41:01>  >>>> GENPT
 <Dec17-2013> <08:41:01>  Acc.Num.Int.=   6.000
 <Dec17-2013> <08:41:01>  Reusing previous cell geometry for gradient smoothing.
 <Dec17-2013> <08:41:01>  Block Length= 128
 <Dec17-2013> <08:41:01>  >>>> PTBAS
 <Dec17-2013> <08:41:01>  >>>> SURPTS
 <Dec17-2013> <08:41:01>  combining surface points...
 <Dec17-2013> <08:41:01>  >>>> CYCLE
 <Dec17-2013> <08:41:01>    1
 <Dec17-2013> <08:41:02>    2  ErrMat   0.21661081  MaxEl -0.05926362
 <Dec17-2013> <08:41:02>    3  ErrMat   0.08441987  MaxEl -0.01690451
 <Dec17-2013> <08:41:03>    4  ErrMat   0.09118091  MaxEl -0.01576291
 <Dec17-2013> <08:41:03>    5  ErrMat   0.05522694  MaxEl  0.01231097
 <Dec17-2013> <08:41:04>    6  ErrMat   0.01809424  MaxEl -0.00337021
 <Dec17-2013> <08:41:04>    7  ErrMat   0.00729493  MaxEl -0.00136132
 <Dec17-2013> <08:41:05>    8  ErrMat   0.00438554  MaxEl  0.00115882
 <Dec17-2013> <08:41:05>    9  ErrMat   0.00135334  MaxEl  0.00026483
 <Dec17-2013> <08:41:06>   10  ErrMat   0.00078158  MaxEl -0.00014427
 <Dec17-2013> <08:41:06>   11  ErrMat   0.00015000  MaxEl -0.00003024
 <Dec17-2013> <08:41:07>   12  ErrMat   0.00004435  MaxEl  0.00000692
 <Dec17-2013> <08:41:07>   13  ErrMat   0.00000790  MaxEl  0.00000156
 <Dec17-2013> <08:41:07>   14  ErrMat   0.00000205  MaxEl  0.00000037
 <Dec17-2013> <08:41:07>  SCF converged
 <Dec17-2013> <08:41:08>   15  ErrMat   0.00000048  MaxEl -0.00000013
 <Dec17-2013> <08:41:08>  >>>> TOTEN
 <Dec17-2013> <08:41:08>  >>>> POPAN
 <Dec17-2013> <08:41:08>  >>>> DEBYE
 <Dec17-2013> <08:41:08>  >>>> AMETS
 <Dec17-2013> <08:41:08>  >>>> ENGRAD
 <Dec17-2013> <08:41:10>  current energy                               -0.19080290 Hartree
 <Dec17-2013> <08:41:10>  energy change                      -0.00010518     0.00010000    F
 <Dec17-2013> <08:41:10>  constrained gradient max            0.01267739     0.00100000    F
 <Dec17-2013> <08:41:10>  constrained gradient rms            0.00623346     0.00066667    F
 <Dec17-2013> <08:41:10>  gradient max                        0.01267739
 <Dec17-2013> <08:41:10>  gradient rms                        0.00623346
 <Dec17-2013> <08:41:10>  cart. step max                      0.00334237     0.01000000    T
 <Dec17-2013> <08:41:10>  cart. step rms                      0.00182927     0.00666667    T
  Coordinates in Geometry Cycle 98
    Atom         X           Y           Z   (Angstrom)
    1.Ag       -1.285871   -1.143684   -0.524271
    2.Ag       -1.245568   -1.323337   -3.118901
    3.Ag        1.857528    2.864116   -1.572935
    4.Ag        0.723353    0.443890   -1.711059
 <Dec17-2013> <08:41:10>  >>>> CORORT
 <Dec17-2013> <08:41:10>  >>>> FITINT
 <Dec17-2013> <08:41:10>  >>>> CLSMAT
 <Dec17-2013> <08:41:10>  >>>> ORTHON
 <Dec17-2013> <08:41:10>  >>>> GENPT
 <Dec17-2013> <08:41:10>  Acc.Num.Int.=   6.000
 <Dec17-2013> <08:41:10>  Reusing previous cell geometry for gradient smoothing.
 <Dec17-2013> <08:41:10>  Block Length= 128
 <Dec17-2013> <08:41:10>  >>>> PTBAS
 <Dec17-2013> <08:41:11>  >>>> SURPTS
 <Dec17-2013> <08:41:11>  combining surface points...
 <Dec17-2013> <08:41:11>  >>>> CYCLE
 <Dec17-2013> <08:41:11>    1
 <Dec17-2013> <08:41:11>    2  ErrMat   0.21691534  MaxEl -0.05934343
 <Dec17-2013> <08:41:12>    3  ErrMat   0.08455579  MaxEl -0.01683250
 <Dec17-2013> <08:41:12>    4  ErrMat   0.09167950  MaxEl -0.01584856
 <Dec17-2013> <08:41:12>    5  ErrMat   0.05575218  MaxEl  0.01245865
 <Dec17-2013> <08:41:13>    6  ErrMat   0.01797111  MaxEl -0.00338757
 <Dec17-2013> <08:41:13>    7  ErrMat   0.00734430  MaxEl -0.00136971
 <Dec17-2013> <08:41:13>    8  ErrMat   0.00442124  MaxEl  0.00116986
 <Dec17-2013> <08:41:14>    9  ErrMat   0.00135572  MaxEl  0.00026434
 <Dec17-2013> <08:41:14>   10  ErrMat   0.00079135  MaxEl -0.00014657
 <Dec17-2013> <08:41:14>   11  ErrMat   0.00015055  MaxEl -0.00003041
 <Dec17-2013> <08:41:14>   12  ErrMat   0.00004460  MaxEl  0.00000693
 <Dec17-2013> <08:41:15>   13  ErrMat   0.00000817  MaxEl  0.00000161
 <Dec17-2013> <08:41:15>   14  ErrMat   0.00000210  MaxEl  0.00000038
 <Dec17-2013> <08:41:15>  SCF converged
 <Dec17-2013> <08:41:15>   15  ErrMat   0.00000032  MaxEl -0.00000008
 <Dec17-2013> <08:41:15>  >>>> TOTEN
 <Dec17-2013> <08:41:16>  >>>> POPAN
 <Dec17-2013> <08:41:16>  >>>> DEBYE
 <Dec17-2013> <08:41:16>  >>>> AMETS
 <Dec17-2013> <08:41:16>  >>>> ENGRAD
 <Dec17-2013> <08:41:17>  current energy                               -0.19090336 Hartree
 <Dec17-2013> <08:41:17>  energy change                      -0.00010046     0.00010000    F
 <Dec17-2013> <08:41:17>  constrained gradient max            0.01262686     0.00100000    F
 <Dec17-2013> <08:41:17>  constrained gradient rms            0.00618782     0.00066667    F
 <Dec17-2013> <08:41:17>  gradient max                        0.01262686
 <Dec17-2013> <08:41:17>  gradient rms                        0.00618782
 <Dec17-2013> <08:41:17>  cart. step max                      0.00332436     0.01000000    T
 <Dec17-2013> <08:41:17>  cart. step rms                      0.00182212     0.00666667    T
  Coordinates in Geometry Cycle 99
    Atom         X           Y           Z   (Angstrom)
    1.Ag       -1.286103   -1.143786   -0.522722
    2.Ag       -1.242244   -1.320872   -3.117793
    3.Ag        1.857021    2.862275   -1.572698
    4.Ag        0.720767    0.443369   -1.713952
 <Dec17-2013> <08:41:17>  >>>> CORORT
 <Dec17-2013> <08:41:17>  >>>> FITINT
 <Dec17-2013> <08:41:18>  >>>> CLSMAT
 <Dec17-2013> <08:41:18>  >>>> ORTHON
 <Dec17-2013> <08:41:18>  >>>> GENPT
 <Dec17-2013> <08:41:18>  Acc.Num.Int.=   6.000
 <Dec17-2013> <08:41:18>  Reusing previous cell geometry for gradient smoothing.
 <Dec17-2013> <08:41:18>  Block Length= 128
 <Dec17-2013> <08:41:18>  >>>> PTBAS
 <Dec17-2013> <08:41:19>  >>>> SURPTS
 <Dec17-2013> <08:41:19>  combining surface points...
 <Dec17-2013> <08:41:19>  >>>> CYCLE
 <Dec17-2013> <08:41:19>    1
 <Dec17-2013> <08:41:19>    2  ErrMat   0.21706551  MaxEl -0.05937276
 <Dec17-2013> <08:41:19>    3  ErrMat   0.08466161  MaxEl -0.01676406
 <Dec17-2013> <08:41:20>    4  ErrMat   0.09218548  MaxEl -0.01592892
 <Dec17-2013> <08:41:20>    5  ErrMat   0.05629222  MaxEl  0.01260802
 <Dec17-2013> <08:41:20>    6  ErrMat   0.01783147  MaxEl -0.00340296
 <Dec17-2013> <08:41:21>    7  ErrMat   0.00739408  MaxEl -0.00137938
 <Dec17-2013> <08:41:21>    8  ErrMat   0.00445507  MaxEl  0.00117995
 <Dec17-2013> <08:41:21>    9  ErrMat   0.00135786  MaxEl  0.00026348
 <Dec17-2013> <08:41:22>   10  ErrMat   0.00080128  MaxEl -0.00014878
 <Dec17-2013> <08:41:22>   11  ErrMat   0.00015103  MaxEl -0.00003060
 <Dec17-2013> <08:41:22>   12  ErrMat   0.00004510  MaxEl  0.00000702
 <Dec17-2013> <08:41:23>   13  ErrMat   0.00000782  MaxEl  0.00000148
 <Dec17-2013> <08:41:23>   14  ErrMat   0.00000233  MaxEl  0.00000040
 <Dec17-2013> <08:41:23>  SCF converged
 <Dec17-2013> <08:41:23>   15  ErrMat   0.00000097  MaxEl -0.00000022
 <Dec17-2013> <08:41:23>  >>>> TOTEN
 <Dec17-2013> <08:41:24>  >>>> POPAN
 <Dec17-2013> <08:41:24>  >>>> DEBYE
 <Dec17-2013> <08:41:24>  >>>> AMETS
 <Dec17-2013> <08:41:24>  >>>> ENGRAD
 <Dec17-2013> <08:41:25>  current energy                               -0.19100594 Hartree
 <Dec17-2013> <08:41:25>  energy change                      -0.00010259     0.00010000    F
 <Dec17-2013> <08:41:25>  constrained gradient max            0.01257718     0.00100000    F
 <Dec17-2013> <08:41:25>  constrained gradient rms            0.00613983     0.00066667    F
 <Dec17-2013> <08:41:25>  gradient max                        0.01257718
 <Dec17-2013> <08:41:25>  gradient rms                        0.00613983
 <Dec17-2013> <08:41:25>  cart. step max                      0.00331185     0.01000000    T
 <Dec17-2013> <08:41:25>  cart. step rms                      0.00181531     0.00666667    T
  Coordinates in Geometry Cycle 100
    Atom         X           Y           Z   (Angstrom)
    1.Ag       -1.286350   -1.143907   -0.521169
    2.Ag       -1.238932   -1.318426   -3.116689
    3.Ag        1.856531    2.860448   -1.572461
    4.Ag        0.718192    0.442870   -1.716845
 <Dec17-2013> <08:41:25>  >>>> CORORT
 <Dec17-2013> <08:41:25>  >>>> FITINT
 <Dec17-2013> <08:41:25>  >>>> CLSMAT
 <Dec17-2013> <08:41:26>  >>>> ORTHON
 <Dec17-2013> <08:41:26>  >>>> GENPT
 <Dec17-2013> <08:41:26>  Acc.Num.Int.=   6.000
 <Dec17-2013> <08:41:26>  Reusing previous cell geometry for gradient smoothing.
 <Dec17-2013> <08:41:26>  Block Length= 128
 <Dec17-2013> <08:41:26>  >>>> PTBAS
 <Dec17-2013> <08:41:27>  >>>> SURPTS
 <Dec17-2013> <08:41:27>  combining surface points...
 <Dec17-2013> <08:41:27>  >>>> CYCLE
 <Dec17-2013> <08:41:27>    1
 <Dec17-2013> <08:41:27>    2  ErrMat   0.21727235  MaxEl -0.05941162
 <Dec17-2013> <08:41:27>    3  ErrMat   0.08478023  MaxEl -0.01668776
 <Dec17-2013> <08:41:28>    4  ErrMat   0.09272431  MaxEl -0.01601003
 <Dec17-2013> <08:41:28>    5  ErrMat   0.05684320  MaxEl  0.01275765
 <Dec17-2013> <08:41:28>    6  ErrMat   0.01769199  MaxEl -0.00341735
 <Dec17-2013> <08:41:29>    7  ErrMat   0.00744322  MaxEl -0.00138856
 <Dec17-2013> <08:41:29>    8  ErrMat   0.00448826  MaxEl  0.00118973
 <Dec17-2013> <08:41:29>    9  ErrMat   0.00136125  MaxEl  0.00026281
 <Dec17-2013> <08:41:30>   10  ErrMat   0.00081159  MaxEl -0.00015116
 <Dec17-2013> <08:41:30>   11  ErrMat   0.00015122  MaxEl -0.00003075
 <Dec17-2013> <08:41:30>   12  ErrMat   0.00004598  MaxEl  0.00000720
 <Dec17-2013> <08:41:31>   13  ErrMat   0.00000775  MaxEl -0.00000147
 <Dec17-2013> <08:41:31>   14  ErrMat   0.00000234  MaxEl  0.00000040
 <Dec17-2013> <08:41:31>  SCF converged
 <Dec17-2013> <08:41:31>   15  ErrMat   0.00000058  MaxEl -0.00000015
 <Dec17-2013> <08:41:31>  >>>> TOTEN
 <Dec17-2013> <08:41:32>  >>>> POPAN
 <Dec17-2013> <08:41:32>  >>>> DEBYE
 <Dec17-2013> <08:41:32>  >>>> AMETS
 <Dec17-2013> <08:41:32>  >>>> ENGRAD
 <Dec17-2013> <08:41:33>  current energy                               -0.19110651 Hartree
 <Dec17-2013> <08:41:33>  energy change                      -0.00010056     0.00010000    F
 <Dec17-2013> <08:41:33>  constrained gradient max            0.01252734     0.00100000    F
 <Dec17-2013> <08:41:33>  constrained gradient rms            0.00609090     0.00066667    F
 <Dec17-2013> <08:41:33>  gradient max                        0.01252734
 <Dec17-2013> <08:41:33>  gradient rms                        0.00609090
 <Dec17-2013> <08:41:33>  cart. step max                      0.00329481     0.01000000    T
 <Dec17-2013> <08:41:33>  cart. step rms                      0.00180769     0.00666667    T
 <Dec17-2013> <08:41:33>  ERROR: GEOMETRY DID NOT CONVERGE
 <Dec17-2013> <08:41:33>  NORMAL TERMINATION
 <Dec17-2013> <08:41:33>  END
