
 *******************************************************************************
 *                                                                             *
 *  -------------------------------------                                      *
 *   Amsterdam Density Functional  (ADF)         2012.01   January 26, 2012    *
 *  -------------------------------------                                      *
 *                                               Build 201201262206            *
 *                                                                             *
 *                                                                             *
 *                            =====================                            *
 *                            |                   |                            *
 *                            |     D I R A C     |                            *
 *                            |                   |                            *
 *                            =====================                            *
 *                                                                             *
 *                                                                             *
 *   Online information and documentation:  http://www.scm.com                 *
 *   E-mail:  support@scm.com   info@scm.com                                   *
 *                                                                             *
 *   Scientific publications using ADF results must be properly referenced     *
 *   See the User Manuals (or the web site) for recommended citations          *
 *   The terms and conditions of the End User License Agreement apply to       *
 *   the use of ADF, http://www.scm.com/Sales/LicAgreement.html                *
 *                                                                             *
 *****************************  pentium64_linux  *******************************
 
 DIRAC 2012.01  RunTime: Dec11-2013 14:10:40  Nodes: 1  Procs: 1

 Temporary files are created in /tmp/1352189.1.long.q/kid_0.j5lQgN

1
 SILVER ATOM 3d CORE RELATIVISTIC, Point Nuc, A and c from li
 N J RN H ZN XION ANUC CLIGHT
 5000   15100.00000000197.36710137 47.00000000  0.00000000  106.905093  0.1370360E+03
  PH   PHI     EPS        DEL        DELRVR
  0.30  0.30     2500.00  0.00001000  0.00001000
 IDIRC  NC1  NDEBU NPRIN  IPUN IRCOR IWCOR
   1   300     0     0     0     0     9
   XALPHA      XLATTER      RNUC
  0.70000000  0.00000000  0.00000000 Point Charge
   XN   XL   XJ      XE          XZ      XDELL
  1.0  0.0  0.5   -1500.000       2.000     0.00000
  2.0  0.0  0.5    -325.000       2.000     0.00000
  2.0  1.0  0.5    -325.000       2.000     0.00000
  2.0  1.0  1.5    -325.000       4.000     0.00000
  3.0  0.0  0.5     -70.000       2.000     0.00000
  3.0  1.0  0.5     -70.000       2.000     0.00000
  3.0  1.0  1.5     -70.000       4.000     0.00000
  3.0  2.0  1.5     -60.000       4.000     0.00000
  3.0  2.0  2.5     -60.000       6.000     0.00000
  4.0  0.0  0.5     -10.000       2.000     0.00000
  4.0  1.0  0.5     -10.000       2.000     0.00000
  4.0  1.0  1.5     -10.000       4.000     0.00000
  4.0  2.0  1.5      -1.000       4.000     0.00000
  4.0  2.0  2.5      -1.000       6.000     0.00000
  5.0  0.0  0.5      -0.500       1.000     0.00000
 ICORP=  0  NPCL=  0  DEMP=0.00  PEPS=0.000000
 R(1)=  0.1000000E-08 D=  0.1005080E+01 RNUC=  0.0000000E+00
 converged at cycle   37  DENSITY AVERAGING    0.1536
  MAXIMUM ERROR IN R.V(R) IS   0.73266205E-05
 Q,EY,EV,EZ,ESUM,ETOT,RHO  0.470000E+02 -0.196167E+03 -0.876390E+04 -0.128962E+05 -0.319969E+04 -0.531488E+04  0.734901E-11


 DIRAC CALCULATION
1                    SILVER ATOM 3d CORE RELATIVISTIC, Point Nuc, A and c from libtc


 EXCHANGE COEFFICIENT=  0.7000000           TAIL CORRECTION=  0.           NUCLEAR RADIUS=  0.000E+00
0                       ORBITAL    N    L    J     ELECTRONS     EIGENVALUE                DELTA OF EIGENV.

                          1S1/2  1.0  0.0  0.5     2.000       -0.9298445E+03                 0.2273091E-04
                          2S1/2  2.0  0.0  0.5     2.000       -0.1369628E+03                 0.3639498E-04
                          2P1/2  2.0  1.0  0.5     2.000       -0.1273849E+03                 0.3693015E-04
                          2P3/2  2.0  1.0  1.5     4.000       -0.1209397E+03                 0.3702741E-04
                          3S1/2  3.0  0.0  0.5     2.000       -0.2508734E+02                 0.1716513E-04
                          3P1/2  3.0  1.0  0.5     2.000       -0.2126622E+02                 0.1799299E-04
                          3P3/2  3.0  1.0  1.5     4.000       -0.2012758E+02                 0.1718269E-04
                          3D3/2  3.0  2.0  1.5     4.000       -0.1333155E+02                 0.2053383E-04
                          3D5/2  3.0  2.0  2.5     6.000       -0.1310170E+02                 0.2025648E-04
                          4S1/2  4.0  0.0  0.5     2.000       -0.3467319E+01                 0.6825765E-06
                          4P1/2  4.0  1.0  0.5     2.000       -0.2259901E+01                 0.4193829E-06
                          4P3/2  4.0  1.0  1.5     4.000       -0.2069785E+01                 0.2705207E-06
                          4D3/2  4.0  2.0  1.5     4.000       -0.2640772E+00                 0.3034642E-06
                          4D5/2  4.0  2.0  2.5     6.000       -0.2433402E+00                 0.3285318E-06
                          5S1/2  5.0  0.0  0.5     1.000       -0.1450750E+00                 0.2931479E-06


                                        NUCLEAR CHARGE=   47.000000
                            INTEGRAL OF CHARGE DENSITY=   47.000000
                           SUM OF THE ORBITAL ENERGIES=  -3199.6921
                                          TOTAL ENERGY=  -5314.8812
                                        KINETIC ENERGY=   5564.2055
                             NUCLEAR ATTRACTION ENERGY= -12896.1922
                             ELECTRON REPULSION ENERGY=   2164.2310
                                       EXCHANGE ENERGY=   -147.1255

 *******************************************************************************

                             D I R A C   E X I T
 NORMAL TERMINATION



 =================
 Timing Statistics
 =================
  
 Total Used :                     CPU=        0.76      System=        0.11     Elapsed=        1.01

 Calls  Section                     ( Mean, Percentage )
 ---------------------------------------------------------------------------------------------------
     2  ><      ................      0.00    0.00             0.00    0.00             0.00    0.00
     1  EXIT PROCEDURE .........      0.76  100.00             0.11  100.00             1.01  100.00


 Currently Open Files (EXIT00)
 ====================

 Unit    Access Format  Status   Type       Ident (file)
 -------------------------------------------------------
   3      SEQ    FORM   TRANSP  NORMAL      LOGFILE
                                          ( logfile )


 Buffered I/O statistics
 =======================
 Memory available:                    268435456
 Number of records fitting in memory:     64527
 Input : 100.0% of                            0  *4k bytes
 Output: 100.0% of                            0  *4k bytes
 Records from serial files evicted:           0
                    others evicted:           0
 Hash table lookups:          0 with          0 conflicts (100.00%)
(INPUT FILE)
Create Ag   file=/homes/cmaikens/adf2012.01/atomicdata/ZORA/TZP/Ag.3d
XC
GGA Becke Perdew
End
relativistic ZORA
Corepotentials t12.rel
End Input

 *******************************************************************************
 *                                                                             *
 *  -------------------------------------                                      *
 *   Amsterdam Density Functional  (ADF)         2012.01   January 26, 2012    *
 *  -------------------------------------                                      *
 *                                               Build 201201262307            *
 *                                                                             *
 *                                                                             *
 *                              =================                              *
 *                              |               |                              *
 *                              |     A D F     |                              *
 *                              |               |                              *
 *                              =================                              *
 *                                                                             *
 *                                                                             *
 *   Online information and documentation:  http://www.scm.com                 *
 *   E-mail:  support@scm.com   info@scm.com                                   *
 *                                                                             *
 *   Scientific publications using ADF results must be properly referenced     *
 *   See the User Manuals (or the web site) for recommended citations          *
 *   The terms and conditions of the End User License Agreement apply to       *
 *   the use of ADF, http://www.scm.com/Sales/LicAgreement.html                *
 *                                                                             *
 **********************  pentium64_linux / platform_mpi  ***********************
 
 ADF 2012.01  RunTime: Dec11-2013 14:10:41  Nodes: 1  Procs: 1

 Temporary files are created in /tmp/1352189.1.long.q/kid_0.TAqI1i

 Silver (TZP, 3d frozen)



 ===========================
 A T T A C H E D   F I L E S
 ===========================
  
 CREATE - Data File:    /homes/cmaikens/adf2012.01/atomicdata/ZORA/TZP/Ag.3d
                        Silver (TZP, 3d frozen)
 Core Potentials:
         file : t12.rel



 ===============================
 M O D E L   P A R A M E T E R S
 ===============================
  
 DENSITY FUNCTIONAL POTENTIAL (scf)
    LDA:                               VWN                                      
    Gradient Corrections:              Becke88 Perdew86                        == Not Default ==

 SPIN  (restricted / unrestr.)
    Molecule:                          Restricted                               

 OTHER ASPECTS
    Relativistic Corrections:          scalar (ZORA,SAPA)                       *** SPECIAL ***

    Nuclear Charge Density Model:      Point Charge Nuclei                                                                                                                                                                                     
    Core Treatment:                    Frozen Orbital(s)                        

    Electric Field:                    ---                                      

    Hyperfine or Zeeman Interaction:   ---                                      



 =====================================
 S Y M M E T R Y ,   E L E C T R O N S
 =====================================
  
 Symmetry: ATOM

 Irreducible Representations, including subspecies
 -------------------------------------------------
 S
 P:x  P:y  P:z
 D:z2  D:x2-y2  D:xy  D:xz  D:yz
 F:z3  F:z  F:xyz  F:z2x  F:z2y  F:x  F:y


 Configuration of Valence Electrons
 ==================================

          Occupation Numbers
          -------------------------------------------------
 S        2 1
 P        6
 D        10
 F        0
          -------------------------------------------------

 Total:   19

 Net Charge: 0 (Nuclei minus Electrons)

 Preset values for MO occupations will be applied through SCF cycle no. 1000000
 Thereafter, the program will assign electrons to MOs that are spatially
 similar to the occupied MOs in a "reference" cycle ("KeepOrbitals").
 The reference cycle is always the PREVIOUS cycle: it will evolve with
 the SCF procedure.



 ================================
 (Slater-type)  F U N C T I O N S  ***  (Basis and Fit)  ***
 ================================
  

 Atom Type    1  (Ag)
 ==============

 Valence Basis Sets:  18
 -----------------------
   1 S   30.800000
   2 S   20.300000
   3 S    9.550000
   2 P   21.100000
   3 P   10.100000
   3 D   11.650000
   4 S    6.350000
   4 S    4.050000
   5 S    2.600000
   5 S    1.550000
   5 S    0.950000
   4 P    6.150000
   4 P    4.150000
   4 P    2.900000
   4 D    4.750000
   4 D    2.600000
   4 D    1.380000
   5 P    1.550000

 Frozen Core Shells
 ------------------
    S:  3
    P:  2
    D:  1

 Charge Fitting Sets (for the computation of the Coulomb Potential):  51
 -----------------------------------------------------------------------
   1 S   61.600000
   1 S   36.350000
   2 S   39.760000
   3 S   38.850000
   3 S   27.540000
   4 S   25.820000
   4 S   19.060000
   5 S   17.540000
   5 S   13.330000
   6 S   12.140000
   6 S    9.440000
   7 S    8.550000
   7 S    6.760000
   8 S    6.110000
   8 S    4.900000
   8 S    3.930000
   9 S    3.550000
   9 S    2.880000
   9 S    2.340000
   9 S    1.900000
   2 P   51.900000
   3 P   41.280000
   4 P   32.450000
   5 P   25.520000
   6 P   20.150000
   6 P   13.650000
   7 P   10.840000
   7 P    7.550000
   8 P    6.030000
   8 P    4.290000
   9 P    3.450000
   9 P    2.500000
   3 D   42.450000
   4 D   30.180000
   5 D   21.700000
   6 D   15.790000
   6 D    9.890000
   7 D    7.280000
   7 D    4.710000
   8 D    3.510000
   8 D    2.330000
   4 F   32.800000
   5 F   21.490000
   6 F   14.360000
   6 F    8.280000
   7 F    5.640000
   7 F    3.380000
   5 G   23.300000
   6 G   11.600000
   7 G    6.010000
   7 G    2.760000


 BAS: List of all Elementary Cartesian Basis Functions
 =====================================================

 The numbering in the list below (to the right of the function characteristics) is referred
 to in print-outs of MO eigenvectors and Mulliken populations in the BAS representation
 (as contrasted to the SFO representation).

 Notes:
 1. The functions are characterized by a polynomial prefactor (powers of x,y,z and r) and
    an exponential decay factor alpha.
 2. Since the basis sets are specific for an atom TYPE, the individual functions occur on
    all atoms of that type.
 3. The word 'Core' in the left margin signals that it is a Core Function (CF) : not a
    degree of freedom in the valence set, but only used to ensure orthogonalization of
    the other valence basis functions on the frozen Core Orbitals.


 (power of) X  Y  Z  R     Alpha  on Atom
            ==========     =====     ==========

 Ag                                   1
                                  ---------------------------------------------------------------------------
    Core    0  0  0  0    30.800      1
    Core    0  0  0  1    20.300      2
    Core    0  0  0  2     9.550      3
    Core    1  0  0  0    21.100      4
    Core    0  1  0  0    21.100      5
    Core    0  0  1  0    21.100      6
    Core    1  0  0  1    10.100      7
    Core    0  1  0  1    10.100      8
    Core    0  0  1  1    10.100      9
    Core    2  0  0  0    11.650     10
    Core    1  1  0  0    11.650     11
    Core    1  0  1  0    11.650     12
    Core    0  2  0  0    11.650     13
    Core    0  1  1  0    11.650     14
    Core    0  0  2  0    11.650     15
            0  0  0  3     6.350     16
            0  0  0  3     4.050     17
            0  0  0  4     2.600     18
            0  0  0  4     1.550     19
            0  0  0  4     0.950     20
            1  0  0  2     6.150     21
            0  1  0  2     6.150     22
            0  0  1  2     6.150     23
            1  0  0  2     4.150     24
            0  1  0  2     4.150     25
            0  0  1  2     4.150     26
            1  0  0  2     2.900     27
            0  1  0  2     2.900     28
            0  0  1  2     2.900     29
            2  0  0  1     4.750     30
            1  1  0  1     4.750     31
            1  0  1  1     4.750     32
            0  2  0  1     4.750     33
            0  1  1  1     4.750     34
            0  0  2  1     4.750     35
            2  0  0  1     2.600     36
            1  1  0  1     2.600     37
            1  0  1  1     2.600     38
            0  2  0  1     2.600     39
            0  1  1  1     2.600     40
            0  0  2  1     2.600     41
            2  0  0  1     1.380     42
            1  1  0  1     1.380     43
            1  0  1  1     1.380     44
            0  2  0  1     1.380     45
            0  1  1  1     1.380     46
            0  0  2  1     1.380     47
            1  0  0  3     1.550     48
            0  1  0  3     1.550     49
            0  0  1  3     1.550     50

 Total number of charge fitting functions (nprimf)       230
 Total number of Cartesian basis functions (naos)         50
 Total number of Cartesian core functions  (ncos)         15



 BAS: List of all Elementary Cartesian Basis Functions
 =====================================================

 The numbering in the list below (to the right of the function characteristics) is referred
 to in print-outs of MO eigenvectors and Mulliken populations in the BAS representation
 (as contrasted to the SFO representation).

 Notes:
 1. The functions are characterized by a polynomial prefactor (powers of x,y,z and r) and
    an exponential decay factor alpha.
 2. Since the basis sets are specific for an atom TYPE, the individual functions occur on
    all atoms of that type.
 3. The word 'Core' in the left margin signals that it is a Core Function (CF) : not a
    degree of freedom in the valence set, but only used to ensure orthogonalization of
    the other valence basis functions on the frozen Core Orbitals.


 (power of) X  Y  Z  R     Alpha  on Atom
            ==========     =====     ==========

 Ag                                   1
                                  ---------------------------------------------------------------------------
    Core    0  0  0  0    30.800      1
    Core    0  0  0  1    20.300      2
    Core    0  0  0  2     9.550      3
    Core    1  0  0  0    21.100      4
    Core    0  1  0  0    21.100      5
    Core    0  0  1  0    21.100      6
    Core    1  0  0  1    10.100      7
    Core    0  1  0  1    10.100      8
    Core    0  0  1  1    10.100      9
    Core    2  0  0  0    11.650     10
    Core    1  1  0  0    11.650     11
    Core    1  0  1  0    11.650     12
    Core    0  2  0  0    11.650     13
    Core    0  1  1  0    11.650     14
    Core    0  0  2  0    11.650     15
            0  0  0  3     6.350     16
            0  0  0  3     4.050     17
            0  0  0  4     2.600     18
            0  0  0  4     1.550     19
            0  0  0  4     0.950     20
            1  0  0  2     6.150     21
            0  1  0  2     6.150     22
            0  0  1  2     6.150     23
            1  0  0  2     4.150     24
            0  1  0  2     4.150     25
            0  0  1  2     4.150     26
            1  0  0  2     2.900     27
            0  1  0  2     2.900     28
            0  0  1  2     2.900     29
            2  0  0  1     4.750     30
            1  1  0  1     4.750     31
            1  0  1  1     4.750     32
            0  2  0  1     4.750     33
            0  1  1  1     4.750     34
            0  0  2  1     4.750     35
            2  0  0  1     2.600     36
            1  1  0  1     2.600     37
            1  0  1  1     2.600     38
            0  2  0  1     2.600     39
            0  1  1  1     2.600     40
            0  0  2  1     2.600     41
            2  0  0  1     1.380     42
            1  1  0  1     1.380     43
            1  0  1  1     1.380     44
            0  2  0  1     1.380     45
            0  1  1  1     1.380     46
            0  0  2  1     1.380     47
            1  0  0  3     1.550     48
            0  1  0  3     1.550     49
            0  0  1  3     1.550     50
1
 ***************************************************************************************************



                                              ***********************
                                              *  T E C H N I C A L  *
                                              ***********************
  



 =============================================================
 P A R A L L E L I Z A T I O N  and  V E C T O R I Z A T I O N
 =============================================================
  
 Nr of parallel processes:                                1
 Maximum vector length in NumInt loops:                 128



 ===============
 I O  vs.  C P U  ***  (store numerical data on disk or recalculate)  ***
 ===============
  
 Basis functions:   recalculate when needed
 Fit functions:     recalculate when needed

 IO buffersize (Mb):                                    256.000000



 =====================
 S C F   U P D A T E S
 =====================
  
 Max. nr. of cycles:                               100
 Convergence criterion:                              0.0000000100
   secondary criterion:                              0.0000000100

 Mix parameter (when DIIS does not apply):           0.2000000000
 Special mix parameter for the first cycle:          1.0000000000


 DIIS (Direct Inversion in Iteration Space)
    Replace damping when SCF Error is below:         0.5000000000
    Apply anyway after SCF cycle:
                                                     5
    (Max.) nr. of expansion vectors:                10

    Upperbound on expansion coefficients:            5.0000000000
    (when exceeded, IterationSpace is re-built)
    2nd Upperbound on coefficients:                 25.0000000000
    (when exceeded, simple damping will be used)
 Automatic ElectronSmearing (in case of problematic SCF convergence) disabled



 =================
 P R E C I S I O N  ***  (General: NumInt, NeglectFunctionTails, ...)  ***
 =================
  

 NumInt:           Target precision:                10.0000000000
 -------           Initial precision:               10.0000000000
                   Min. precision (optimization):   10.0000000000

 Neglect Functions:          Basis functions:        0.1000000000E-11
 ------------------          Fit functions:          0.1000000000E-11



 ===========================
 L I N E A R   S C A L I N G
 ===========================
  

 Cut-off radii density fit:                        0.1000000000E-13
 Overlap cut-off criterion AO matrix elements:     0.1000000000E-11
 Cut-offs for Coulomb potential and fitted density:0.1000000000E-13
 Cut-off criterion for Coulomb multipole terms:    0.1000000000E-13
 Progressive Convergence parameter:                 0.000000000    
1
 ***************************************************************************************************



                                            ***************************
                                            *  C O M P U T A T I O N  *
                                            ***************************
  

 Number of elements of the density matrix on this node (used, total):      1275      1275



 ====================================================
 Numerical Integration : Voronoi Polyhedra (Te Velde)  ***  (parameters, tests)  ***
 ====================================================
  
 General Accuracy Parameter :                         10.00

 Symmetry used in the points section:  ATOM  


 Summary of the Symmetry Unique Points:
 --------------------------------------
    Nr. of used Symmetry Operators                     1

    Points in the Atomic Spheres                      94
    Points in the Atomic Polyhedra                     0
    Points in the Outer Region                         0
    ----------------------------------------------------
    Total                                             94

    Sum of Weights                                114259.875357

 Total nr. of points:         94
 Nr. of blocks:                1
 Block length:                94
 Nr. of dummy points:          0


 Test of Precision of the Numerical Integration Grid
 ===================================================

 Integral of the Total Core Density:                  27.99999992831499
 Relative Error:                                      -2.560E-09



 =====
 S C F
 =====
  

 CYCLE    1
 orbitals (Q,E):
 ---------------
 S :1...5            ( 2.00    -3.4932)  ( 1.00    -0.1678)  ( 0.00     0.0495)  ( 0.00     0.5481)
                     ( 0.00     4.1890)
 P :1...4            ( 6.00    -2.1702)  ( 0.00     0.0010)  ( 0.00     0.9464)  ( 0.00     6.3133)
 D :1...3            (10.00    -0.2809)  ( 0.00     0.2936)  ( 0.00     2.2251)

 CYCLE    2
 d-Pmat  mean:  0.22E-02
 imax=     33: -0.66E-02
 orbitals (Q,E):
 ---------------
 S :1...3            ( 2.00    -3.4789)  ( 1.00    -0.1655)  ( 0.00     0.0499)
 P :1...2            ( 6.00    -2.1568)  ( 0.00     0.0025)
 D :1...2            (10.00    -0.2711)  ( 0.00     0.2958)

 CYCLE    3
 d-Pmat  mean:  0.14E-02
 imax=     33:  0.43E-02
 orbitals (Q,E):
 ---------------
 S :1...3            ( 2.00    -3.4878)  ( 1.00    -0.1670)  ( 0.00     0.0494)
 P :1...2            ( 6.00    -2.1651)  ( 0.00     0.0014)
 D :1...2            (10.00    -0.2771)  ( 0.00     0.2943)

 CYCLE    4
 d-Pmat  mean:  0.75E-04
 imax=     18:  0.23E-03
 orbitals (Q,E):
 ---------------
 S :1...3            ( 2.00    -3.4884)  ( 1.00    -0.1672)  ( 0.00     0.0493)
 P :1...2            ( 6.00    -2.1657)  ( 0.00     0.0012)
 D :1...2            (10.00    -0.2776)  ( 0.00     0.2941)

 CYCLE    5
 d-Pmat  mean:  0.28E-05
 imax=     18: -0.99E-05
 orbitals (Q,E):
 ---------------
 S :1...3            ( 2.00    -3.4884)  ( 1.00    -0.1672)  ( 0.00     0.0493)
 P :1...2            ( 6.00    -2.1657)  ( 0.00     0.0012)
 D :1...2            (10.00    -0.2775)  ( 0.00     0.2941)

 CYCLE    6
 d-Pmat  mean:  0.17E-07
 imax=     19: -0.13E-06
 orbitals (Q,E):
 ---------------
 S :1...3            ( 2.00    -3.4884)  ( 1.00    -0.1672)  ( 0.00     0.0493)
 P :1...2            ( 6.00    -2.1657)  ( 0.00     0.0012)
 D :1...2            (10.00    -0.2775)  ( 0.00     0.2941)

 CYCLE    7
 d-Pmat  mean:  0.11E-08
 imax=     19: -0.12E-07
 orbitals (Q,E):
 ---------------
 S :1...3            ( 2.00    -3.4884)  ( 1.00    -0.1672)  ( 0.00     0.0493)
 P :1...2            ( 6.00    -2.1657)  ( 0.00     0.0012)
 D :1...2            (10.00    -0.2775)  ( 0.00     0.2941)

 SCF CONVERGED

 CYCLE    8
1
 ***************************************************************************************************



                                                *******************
                                                *  R E S U L T S  *
                                                *******************
  
 *** Setting up for NEW gradients in focky
 *** Using FIT density in focky
 XCFun disabled
 XCFun disabled
 XCFun disabled

 Scaled ZORA Orbital Energies, per Irrep and Spin:
 =================================================
                        Occup              E (au)              E (eV)       Diff (eV) with prev. cycle
                        -----      --------------------        ------       --------------------------
 S
               1        2.000     -0.34883937327187E+01       -94.924               1.19E-09
               2        1.000     -0.16721774375755E+00        -4.550               9.96E-10
               3        0.000      0.49292090848795E-01         1.341
               4        0.000      0.54900113066589E+00        14.939
               5        0.000      0.41923034015758E+01       114.078
 P
               1        6.000     -0.21656535049671E+01       -58.930               1.22E-09
               2        0.000      0.12312059798363E-02         0.034
               3        0.000      0.94805018590492E+00        25.798
               4        0.000      0.63168566722002E+01       171.890
 D
               1       10.000     -0.27753746736557E+00        -7.552               1.26E-09
               2        0.000      0.29412398526779E+00         8.004
               3        0.000      0.22279871540514E+01        60.627


 Partially Occupied:
               2 S                -0.16721774375755E+00
  
 HOMO :        1 D                -0.27753746736557E+00
 LUMO :        2 P                 0.12312059798363E-02
  


 Orbital Energies, all Irreps
 ========================================

 Irrep        no.  (spin)   Occup              E (au)                E (eV)
 ---------------------------------------------------------------------------
 S             1             2.00       -0.34883937327187E+01       -94.9240
 P             1             6.00       -0.21656535049671E+01       -58.9304
 D             1            10.00       -0.27753746736557E+00        -7.5522
 S             2             1.00       -0.16721774375755E+00        -4.5502
 P             2             0.00        0.12312059798363E-02         0.0335
 S             3             0.00        0.49292090848795E-01         1.3413
 D             2             0.00        0.29412398526779E+00         8.0035
 S             4             0.00        0.54900113066589E+00        14.9391
 P             3             0.00        0.94805018590492E+00        25.7978
 D             3             0.00        0.22279871540514E+01        60.6266
 S             5             0.00        0.41923034015758E+01       114.0784
 P             4             0.00        0.63168566722002E+01       171.8904


 Scaled ZORA Orbital Energies of the Core Orbitals:
 ==================================================

 (Note that the atoms are grouped by atomtype, see the labels, and may hence NOT be in input order)

 AtomType  Orbital  Atom                   E (au)                        E (eV)
 --------  -------  ----           --------------------        ----------------
 Ag          1S        1          -0.93051917515589E+03              -25320.715
             2S        1          -0.13700540306455E+03               -3728.107
             3S        1          -0.25114511935222E+02                -683.401
             2P        1          -0.12286153862350E+03               -3343.233
             3P        1          -0.20498924322829E+02                -557.804
             3D        1          -0.13198949396916E+02                -359.162



 =======================================
 M U L L I K E N   P O P U L A T I O N S
 =======================================
  
 The survey below gives for each atom:
 a) the total charge (Z minus electrons)
 b) the net spin polarization (nr of electrons spin-A minus spin-B)
 c) for each spin the atomic electron valence density (integrated) per L-value.

 Atom              Charge    Spin density          S         P         D         F
 ----              ------    ------------       ------    ------    ------    ------
 1 Ag              0.0000                       3.0000    6.0000   10.0000    0.0000

 Populations of individual BAS functions
 ----------------------------------------
 1 Ag          -0.0085  0.0044 -0.0712  0.0003  0.0003  0.0003  0.0270  0.0270  0.0270  0.0387
                0.0580  0.0580  0.0387  0.0580  0.0387  1.3215  0.7613  0.3605  0.5376  0.0943
                0.7450  0.7450  0.7450  1.0681  1.0681  1.0681  0.1587  0.1587  0.1587  0.5515
                0.8273  0.8273  0.5515  0.8273  0.5515  0.6409  0.9614  0.9614  0.6409  0.9614
                0.6409  0.1022  0.1533  0.1533  0.1022  0.1533  0.1022  0.0010  0.0010  0.0010

 Gross Charges per Atom (Z minus electrons)
 ==========================================
             0.0000
 Net Total:  0.00000000


 Atom-Atom Population Matrix (off-diagonal elements not doubled)
 ===============================================================

     1 :    19.0000



 =============
 Dipole Moment  ***  (Debye)  ***
 =============
  
 Vector   :         0.00000000      0.00000000      0.00000000
 Magnitude:         0.00000000

 This molecular dipole moment is calculated with analytic integration



 =========================================
 Quadrupole Moment (Buckingham convention)  ***  (a.u.)  ***
 =========================================
  
      quad-xx        quad-xy        quad-xz        quad-yy        quad-yz        quad-zz
      0.00000000     0.00000000     0.00000000     0.00000000     0.00000000     0.00000000

 This molecular quadrupole moment is calculated with analytic integration



 ===============================================================================
 Electrostatic potential at the Nuclei due to valence electrons and other nuclei
 ===============================================================================
  
         Atom                  Potential
         ----                  ---------
     1)   Ag                 21.10983739
 
 
 ========================
 No memory problems found
 ========================
 
 Maximum number of active allocate calls:         391
 
 *******************************************************************************

                             A D F   E X I T
 NORMAL TERMINATION



 =================
 Timing Statistics
 =================
  
 Total Used :                     CPU=        0.41      System=        0.20     Elapsed=        1.97

 Calls  Section                     ( Mean, Percentage )
 ---------------------------------------------------------------------------------------------------
     3  ><      ................      0.00    0.00             0.00    5.00             0.01    1.85
     1  INIT    ................      0.02    4.88             0.00    0.00             0.50   25.16
     1  GEOMET  ................      0.00    0.00             0.15   75.00             0.35   18.02
     1  INPUTA  ................      0.01    2.44             0.00    0.00             0.09    4.62
     1  MAINSY  ................      0.02    4.88             0.00    0.00             0.11    5.71
     1  SYMFIT  ................      0.00    0.00             0.00    0.00             0.01    0.65
     1  CORORT  ................      0.01    2.44             0.00    0.00             0.01    0.31
     1  SYMORB  ................      0.00    0.00             0.00    0.00             0.01    0.34
     1  FITINT  ................      0.00    0.00             0.01    5.00             0.03    1.52
     1  CLSMAT  ................      0.00    0.00             0.00    0.00             0.00    0.17
     1  ORTHON  ................      0.00    0.00             0.00    0.00             0.01    0.74
     1  ETALOW  ................      0.00    0.00             0.00    0.00             0.00    0.18
     1  GENPT   ................      0.01    2.44             0.01    5.00             0.06    2.87
     1  PTBAS   ................      0.00    0.00             0.00    0.00             0.02    1.14
     8  FOCKY   ................      0.03   60.98             0.00    5.00             0.06   25.16
     8  FOCKTR  ................      0.00    0.00             0.00    0.00             0.00    0.36
     8  FOCKNM  ................      0.00    0.00             0.00    0.00             0.00    0.02
     8  SDIIS   ................      0.00    0.00             0.00    0.00             0.00    0.51
     8  EMERGE  ................      0.00    4.88             0.00    5.00             0.01    4.16
     1  COREPS  ................      0.02    4.88             0.00    0.00             0.03    1.53
     1  POPAN   ................      0.00    0.00             0.00    0.00             0.02    0.88
     1  DEBYE   ................      0.00    0.00             0.00    0.00             0.00    0.13
     1  QMPOT   ................      0.02    4.88             0.00    0.00             0.03    1.73
     1  EXIT PROCEDURE .........      0.03    7.32             0.00    0.00             0.04    2.25


 Currently Open Files (EXIT00)
 ====================

 Unit    Access Format  Status   Type       Ident (file)
 -------------------------------------------------------
   3      SEQ    FORM   TRANSP  NORMAL      LOGFILE
                                          ( logfile )


 Buffered I/O statistics
 =======================
 Memory available:                    268435456
 Number of records fitting in memory:     64527
 Input :   1.3% of                         3830  *4k bytes
 Output:  10.3% of                         1959  *4k bytes
 Records from serial files evicted:           0
                    others evicted:           0
 Hash table lookups:      15695 with          0 conflicts (  0.00%)

 ***************************************************************************************************
 (LOGFILE)
 <Dec11-2013> <14:10:40>  DIRAC 2012.01  RunTime: Dec11-2013 14:10:40  Nodes: 1  Procs: 1
 <Dec11-2013> <14:10:40>  NORMAL TERMINATION
 <Dec11-2013> <14:10:41>  END
 <Dec11-2013> <14:10:41>  ADF 2012.01  RunTime: Dec11-2013 14:10:41  Nodes: 1  Procs: 1
 <Dec11-2013> <14:10:42>  Silver (TZP, 3d frozen)
 <Dec11-2013> <14:10:42>  RunType   : CREATE
 <Dec11-2013> <14:10:42>  Net Charge: 0 (Nuclei minus Electrons)
 <Dec11-2013> <14:10:42>  Symmetry  : ATOM
 <Dec11-2013> <14:10:42>  >>>> CORORT
 <Dec11-2013> <14:10:42>  >>>> FITINT
 <Dec11-2013> <14:10:42>  >>>> CLSMAT
 <Dec11-2013> <14:10:42>  >>>> ORTHON
 <Dec11-2013> <14:10:42>  >>>> GENPT
 <Dec11-2013> <14:10:42>  Acc.Num.Int.=  10.000
 <Dec11-2013> <14:10:42>  Block Length=  94
 <Dec11-2013> <14:10:42>  >>>> PTBAS
 <Dec11-2013> <14:10:42>  >>>> CYCLE
 <Dec11-2013> <14:10:42>    1
 <Dec11-2013> <14:10:42>    2  ErrMat   0.02728591  MaxEl  0.00887264
 <Dec11-2013> <14:10:43>    3  ErrMat   0.05713964  MaxEl -0.01729688
 <Dec11-2013> <14:10:43>    4  ErrMat   0.00229105  MaxEl -0.00078765
 <Dec11-2013> <14:10:43>    5  ErrMat   0.00007667  MaxEl  0.00002781
 <Dec11-2013> <14:10:43>    6  ErrMat   0.00000030  MaxEl -0.00000012
 <Dec11-2013> <14:10:43>    7  ErrMat   0.00000001  MaxEl  0.00000000
 <Dec11-2013> <14:10:43>  SCF converged
 <Dec11-2013> <14:10:43>    8  ErrMat   0.00000000  MaxEl  0.00000000
 <Dec11-2013> <14:10:43>   Solutions with partially occupied orbitals may not be
 <Dec11-2013> <14:10:43>   lowest in energy. You might consider lowering the
 <Dec11-2013> <14:10:43>   symmetry in the input and explicitly specifying integer
 <Dec11-2013> <14:10:43>   occupations. In that case always check that you obtain
 <Dec11-2013> <14:10:43>   an aufbau solution.
 <Dec11-2013> <14:10:43>  >>>> POPAN
 <Dec11-2013> <14:10:43>  >>>> DEBYE
 <Dec11-2013> <14:10:43>  NORMAL TERMINATION
 <Dec11-2013> <14:10:43>  END
(INPUT FILE)
title Au20 cluster optimization with 4f frozen core - td structure

RELATIVISTIC SCALAR ZORA SAPA

SCF
Converge 1e-8
Iterations 300
END

Solvation
Solv Name =Methanol
END

INTEGRATION 6.0

::Unrestricted
CHARGE -1

XC
GGA Becke Perdew
END

::GEOMETRY
::TS
::converge E=1e-4 grad=1e-3
::smooth aggressive
::iterations 100
::frequencies
::END

Atoms
Ag       -2.213053   -0.191963   -0.024091
END

Fragments
Ag t21.Ag
End
end input

 *******************************************************************************
 *                                                                             *
 *  -------------------------------------                                      *
 *   Amsterdam Density Functional  (ADF)         2012.01   January 26, 2012    *
 *  -------------------------------------                                      *
 *                                               Build 201201262307            *
 *                                                                             *
 *                                                                             *
 *                              =================                              *
 *                              |               |                              *
 *                              |     A D F     |                              *
 *                              |               |                              *
 *                              =================                              *
 *                                                                             *
 *                                                                             *
 *   Online information and documentation:  http://www.scm.com                 *
 *   E-mail:  support@scm.com   info@scm.com                                   *
 *                                                                             *
 *   Scientific publications using ADF results must be properly referenced     *
 *   See the User Manuals (or the web site) for recommended citations          *
 *   The terms and conditions of the End User License Agreement apply to       *
 *   the use of ADF, http://www.scm.com/Sales/LicAgreement.html                *
 *                                                                             *
 **********************  pentium64_linux / platform_mpi  ***********************
 
 ADF 2012.01  RunTime: Dec11-2013 14:10:44  Nodes: 1  Procs: 1

 Temporary files are created in /tmp/1352189.1.long.q/kid_0.idpJhV

 Au20 cluster optimization with 4f frozen core - td structure



 ===========================
 A T T A C H E D   F I L E S
 ===========================
  



 ===============================
 M O D E L   P A R A M E T E R S
 ===============================
  
 DENSITY FUNCTIONAL POTENTIAL (scf)
    LDA:                               VWN                                      
    Gradient Corrections:              Becke88 Perdew86                        == Not Default ==

 SPIN  (restricted / unrestr.)
    Molecule:                          Restricted                               
    Fragments:                         Restricted                               

 OTHER ASPECTS
    Relativistic Corrections:          scalar (ZORA,SAPA)                       *** SPECIAL ***

    Nuclear Charge Density Model:      Point Charge Nuclei                                                                                                                                                                                     
    Core Treatment:                    Frozen Orbital(s)                        

    Electric Field:                    ---                                      

    Hyperfine or Zeeman Interaction:   ---                                      

 SOLVATION
-------------------------------------------

  The Solvent-Excluding surface is calculated

       Division Level for Surface Triangles (NDIV)                  3
       Final Division Level for Triangles (NFDIV)                   1
       Radius of the Solvent (RSOL)                           2.53000 angstr
       Minimum Radius for new sphere (RMINSOLV)               0.50000 angstr
       Overlapping Factor (OFAC)                              0.80000
       New spheres will be assigned to the initials using ASSG1

  Dielectric Constant (EPSL)                                 32.60000

       COSMO equation is solved iteratively-               conjugate-gradient

       Maximun of Iterations for Charges (NCIX)                  1000
       Criterion for Charge convergence (CCNV)                1.0E-10

  COSMO charges included variationally in SCF

       COSMO included at every SCF cycle

  Geometry-dependent empirical factor                         0.00000

  C-Matrix calculated in cspmtx

  In cspmtx, C-Matrix calculated using fitted potential

-------------------------------------------



 Fragment File(s)
 ----------------
 Ag:
         file : t21.Ag
         jobid: ADF 2012.01  RunTime: Dec11-2013 14:10:41  Nodes: 1  Procs: 1
         title: Silver (TZP, 3d frozen)



                                        ************************************
                                        *  R U N   T Y P E : SINGLE POINT  *
                                        ************************************
  



 ===============
 G E O M E T R Y  ***  Single Atom  ***
 ===============
  

 ATOMS
 =====                            X Y Z                    CHARGE                     RADIUS
                                (Angstrom)             Nucl     +Core       At.Mass (Angstrom)
                       --------------------------    ----------------       ------- ----------
    1  Ag              0.0000    0.0000    0.0000     47.00     19.00      106.9051    2.0250


 FRAGMENTS
 =========                                     Atoms in this Fragment     Cart. coord.s (Angstrom)
                                               -------------------------------------------------------
    1  Ag                                                1  Ag           0.0000    0.0000    0.0000



 =====================================
 S Y M M E T R Y ,   E L E C T R O N S
 =====================================
  
 Symmetry: ATOM

 Irreducible Representations, including subspecies
 -------------------------------------------------
 S
 P:x  P:y  P:z
 D:z2  D:x2-y2  D:xy  D:xz  D:yz
 F:z3  F:z  F:xyz  F:z2x  F:z2y  F:x  F:y


 Configuration of Valence Electrons
 ==================================
 ( determined in the SCF procedure )

 Total:   20

 Net Charge: -1 (Nuclei minus Electrons)

 Aufbau principle for MO occupations will be applied through SCF cycle no.      30
 Thereafter, the program will assign electrons to MOs that are spatially
 similar to the occupied MOs in a "reference" cycle ("KeepOrbitals").
 The reference cycle is always the PREVIOUS cycle: it will evolve with
 the SCF procedure.
1
 ***************************************************************************************************



                                      ****************************************
                                      *  B U I L D : (Fragments, Functions)  *
                                      ****************************************
  



 =======
 S F O s  ***  (Symmetrized Fragment Orbitals)  ***
 =======
  
 SFOs are linear combinations of (valence) Fragment Orbitals (FOs), such that the SFOs transform as the
 irreducible representations of the (molecular) symmetry group. Each SFO is therefore characterized by
 an irrep of the molecule and by a few (or only one) generating FOs.
 The SFOs constitute a symmetry-adapted basis for the Fock matrix. The MO eigenvector coefficients in
 this basis provide a direct interpretation of the MOs in terms of Frontier Orbital Theory.

 The SFOs are combined with auxiliary Core Functions (CFs) to ensure orthogonalization on the (frozen)
 Core Orbitals (COs). The Core-orthogonalized SFOs (CSFOs) constitute the true Fock basis.

 The FOs, and hence also the (C)SFOs are combinations of the elementary basis functions (BAS). The basis
 functions that participate in the description of the SFOs depend on the irrep. The indices of the
 involved functions are printed below for each irrep.
 (The complete list of primitive basis functions is printed in another section)

 Total nr. of (C)SFOs (summation over all irreps) :    32

 NOTE: a (C)SFO that is defined as a combination of more than one FO is usually NOT normalized.



                                       === S ===
 Nr. of SFOs :    5
 Cartesian basis functions that participate in this irrep (total number =     8) :
      1     2     3    16    17    18    19    20

    SFO  (index         Fragment          Generating    Expansion in Fragment Orbitals
  indx  incl.CFs)   Occup   Orb.Energy   FragmentType  Coeff.   Orbital     on Fragment
 --------------------------------------------------------------------------------------
     1       4      2.000      -3.490 au  Ag            1.00      1 S               1
                        (     -94.963 eV)
     2       5      1.000      -0.167 au  Ag            1.00      2 S               1
                        (      -4.550 eV)
     3       6       --         0.049 au  Ag            1.00      3 S               1
                        (       1.341 eV)
     4       7       --         0.549 au  Ag            1.00      4 S               1
                        (      14.940 eV)
     5       8       --         4.196 au  Ag            1.00      5 S               1
                        (     114.167 eV)



                                       === P:x ===
 Nr. of SFOs :    4
 Cartesian basis functions that participate in this irrep (total number =     6) :
      4     7    21    24    27    48

    SFO  (index         Fragment          Generating    Expansion in Fragment Orbitals
  indx  incl.CFs)   Occup   Orb.Energy   FragmentType  Coeff.   Orbital     on Fragment
 --------------------------------------------------------------------------------------
     1       3      2.000      -2.166 au  Ag            1.00      1 P:x             1
                        (     -58.952 eV)
     2       4       --         0.001 au  Ag            1.00      2 P:x             1
                        (       0.034 eV)
     3       5       --         0.948 au  Ag            1.00      3 P:x             1
                        (      25.801 eV)
     4       6       --         6.323 au  Ag            1.00      4 P:x             1
                        (     172.071 eV)



                                       === P:y ===
 Nr. of SFOs :    4
 Cartesian basis functions that participate in this irrep (total number =     6) :
      5     8    22    25    28    49

    SFO  (index         Fragment          Generating    Expansion in Fragment Orbitals
  indx  incl.CFs)   Occup   Orb.Energy   FragmentType  Coeff.   Orbital     on Fragment
 --------------------------------------------------------------------------------------
     1       3      2.000      -2.166 au  Ag            1.00      1 P:y             1
                        (     -58.952 eV)
     2       4       --         0.001 au  Ag            1.00      2 P:y             1
                        (       0.034 eV)
     3       5       --         0.948 au  Ag            1.00      3 P:y             1
                        (      25.801 eV)
     4       6       --         6.323 au  Ag            1.00      4 P:y             1
                        (     172.071 eV)



                                       === P:z ===
 Nr. of SFOs :    4
 Cartesian basis functions that participate in this irrep (total number =     6) :
      6     9    23    26    29    50

    SFO  (index         Fragment          Generating    Expansion in Fragment Orbitals
  indx  incl.CFs)   Occup   Orb.Energy   FragmentType  Coeff.   Orbital     on Fragment
 --------------------------------------------------------------------------------------
     1       3      2.000      -2.166 au  Ag            1.00      1 P:z             1
                        (     -58.952 eV)
     2       4       --         0.001 au  Ag            1.00      2 P:z             1
                        (       0.034 eV)
     3       5       --         0.948 au  Ag            1.00      3 P:z             1
                        (      25.801 eV)
     4       6       --         6.323 au  Ag            1.00      4 P:z             1
                        (     172.071 eV)



                                       === D:z2 ===
 Nr. of SFOs :    3
 Cartesian basis functions that participate in this irrep (total number =    12) :
     10    13    15    30    33    35    36    39    41    42
     45    47

    SFO  (index         Fragment          Generating    Expansion in Fragment Orbitals
  indx  incl.CFs)   Occup   Orb.Energy   FragmentType  Coeff.   Orbital     on Fragment
 --------------------------------------------------------------------------------------
     1       4      2.000      -0.278 au  Ag            1.00      1 D:z2            1
                        (      -7.554 eV)
     2       5       --         0.294 au  Ag            1.00      2 D:z2            1
                        (       8.004 eV)
     3       6       --         2.229 au  Ag            1.00      3 D:z2            1
                        (      60.651 eV)



                                       === D:x2-y2 ===
 Nr. of SFOs :    3
 Cartesian basis functions that participate in this irrep (total number =     8) :
     10    13    30    33    36    39    42    45

    SFO  (index         Fragment          Generating    Expansion in Fragment Orbitals
  indx  incl.CFs)   Occup   Orb.Energy   FragmentType  Coeff.   Orbital     on Fragment
 --------------------------------------------------------------------------------------
     1       3      2.000      -0.278 au  Ag            1.00      1 D:x2-y2         1
                        (      -7.554 eV)
     2       4       --         0.294 au  Ag            1.00      2 D:x2-y2         1
                        (       8.004 eV)
     3       5       --         2.229 au  Ag            1.00      3 D:x2-y2         1
                        (      60.651 eV)



                                       === D:xy ===
 Nr. of SFOs :    3
 Cartesian basis functions that participate in this irrep (total number =     4) :
     11    31    37    43

    SFO  (index         Fragment          Generating    Expansion in Fragment Orbitals
  indx  incl.CFs)   Occup   Orb.Energy   FragmentType  Coeff.   Orbital     on Fragment
 --------------------------------------------------------------------------------------
     1       2      2.000      -0.278 au  Ag            1.00      1 D:xy            1
                        (      -7.554 eV)
     2       3       --         0.294 au  Ag            1.00      2 D:xy            1
                        (       8.004 eV)
     3       4       --         2.229 au  Ag            1.00      3 D:xy            1
                        (      60.651 eV)



                                       === D:xz ===
 Nr. of SFOs :    3
 Cartesian basis functions that participate in this irrep (total number =     4) :
     12    32    38    44

    SFO  (index         Fragment          Generating    Expansion in Fragment Orbitals
  indx  incl.CFs)   Occup   Orb.Energy   FragmentType  Coeff.   Orbital     on Fragment
 --------------------------------------------------------------------------------------
     1       2      2.000      -0.278 au  Ag            1.00      1 D:xz            1
                        (      -7.554 eV)
     2       3       --         0.294 au  Ag            1.00      2 D:xz            1
                        (       8.004 eV)
     3       4       --         2.229 au  Ag            1.00      3 D:xz            1
                        (      60.651 eV)



                                       === D:yz ===
 Nr. of SFOs :    3
 Cartesian basis functions that participate in this irrep (total number =     4) :
     14    34    40    46

    SFO  (index         Fragment          Generating    Expansion in Fragment Orbitals
  indx  incl.CFs)   Occup   Orb.Energy   FragmentType  Coeff.   Orbital     on Fragment
 --------------------------------------------------------------------------------------
     1       2      2.000      -0.278 au  Ag            1.00      1 D:yz            1
                        (      -7.554 eV)
     2       3       --         0.294 au  Ag            1.00      2 D:yz            1
                        (       8.004 eV)
     3       4       --         2.229 au  Ag            1.00      3 D:yz            1
                        (      60.651 eV)



 ================================
 (Slater-type)  F U N C T I O N S  ***  (Basis and Fit)  ***
 ================================
  

 Atom Type    1  (Ag)
 ==============

 Valence Basis Sets:  18
 -----------------------
   1 S   30.800000
   2 S   20.300000
   3 S    9.550000
   2 P   21.100000
   3 P   10.100000
   3 D   11.650000
   4 S    6.350000
   4 S    4.050000
   5 S    2.600000
   5 S    1.550000
   5 S    0.950000
   4 P    6.150000
   4 P    4.150000
   4 P    2.900000
   4 D    4.750000
   4 D    2.600000
   4 D    1.380000
   5 P    1.550000

 Frozen Core Shells
 ------------------
    S:  3
    P:  2
    D:  1

 Charge Fitting Sets (for the computation of the Coulomb Potential):  51
 -----------------------------------------------------------------------
   1 S   61.600000
   1 S   36.350000
   2 S   39.760000
   3 S   38.850000
   3 S   27.540000
   4 S   25.820000
   4 S   19.060000
   5 S   17.540000
   5 S   13.330000
   6 S   12.140000
   6 S    9.440000
   7 S    8.550000
   7 S    6.760000
   8 S    6.110000
   8 S    4.900000
   8 S    3.930000
   9 S    3.550000
   9 S    2.880000
   9 S    2.340000
   9 S    1.900000
   2 P   51.900000
   3 P   41.280000
   4 P   32.450000
   5 P   25.520000
   6 P   20.150000
   6 P   13.650000
   7 P   10.840000
   7 P    7.550000
   8 P    6.030000
   8 P    4.290000
   9 P    3.450000
   9 P    2.500000
   3 D   42.450000
   4 D   30.180000
   5 D   21.700000
   6 D   15.790000
   6 D    9.890000
   7 D    7.280000
   7 D    4.710000
   8 D    3.510000
   8 D    2.330000
   4 F   32.800000
   5 F   21.490000
   6 F   14.360000
   6 F    8.280000
   7 F    5.640000
   7 F    3.380000
   5 G   23.300000
   6 G   11.600000
   7 G    6.010000
   7 G    2.760000


 BAS: List of all Elementary Cartesian Basis Functions
 =====================================================

 The numbering in the list below (to the right of the function characteristics) is referred
 to in print-outs of MO eigenvectors and Mulliken populations in the BAS representation
 (as contrasted to the SFO representation).

 Notes:
 1. The functions are characterized by a polynomial prefactor (powers of x,y,z and r) and
    an exponential decay factor alpha.
 2. Since the basis sets are specific for an atom TYPE, the individual functions occur on
    all atoms of that type.
 3. The word 'Core' in the left margin signals that it is a Core Function (CF) : not a
    degree of freedom in the valence set, but only used to ensure orthogonalization of
    the other valence basis functions on the frozen Core Orbitals.


 (power of) X  Y  Z  R     Alpha  on Atom
            ==========     =====     ==========

 Ag                                   1
                                  ---------------------------------------------------------------------------
    Core    0  0  0  0    30.800      1
    Core    0  0  0  1    20.300      2
    Core    0  0  0  2     9.550      3
    Core    1  0  0  0    21.100      4
    Core    0  1  0  0    21.100      5
    Core    0  0  1  0    21.100      6
    Core    1  0  0  1    10.100      7
    Core    0  1  0  1    10.100      8
    Core    0  0  1  1    10.100      9
    Core    2  0  0  0    11.650     10
    Core    1  1  0  0    11.650     11
    Core    1  0  1  0    11.650     12
    Core    0  2  0  0    11.650     13
    Core    0  1  1  0    11.650     14
    Core    0  0  2  0    11.650     15
            0  0  0  3     6.350     16
            0  0  0  3     4.050     17
            0  0  0  4     2.600     18
            0  0  0  4     1.550     19
            0  0  0  4     0.950     20
            1  0  0  2     6.150     21
            0  1  0  2     6.150     22
            0  0  1  2     6.150     23
            1  0  0  2     4.150     24
            0  1  0  2     4.150     25
            0  0  1  2     4.150     26
            1  0  0  2     2.900     27
            0  1  0  2     2.900     28
            0  0  1  2     2.900     29
            2  0  0  1     4.750     30
            1  1  0  1     4.750     31
            1  0  1  1     4.750     32
            0  2  0  1     4.750     33
            0  1  1  1     4.750     34
            0  0  2  1     4.750     35
            2  0  0  1     2.600     36
            1  1  0  1     2.600     37
            1  0  1  1     2.600     38
            0  2  0  1     2.600     39
            0  1  1  1     2.600     40
            0  0  2  1     2.600     41
            2  0  0  1     1.380     42
            1  1  0  1     1.380     43
            1  0  1  1     1.380     44
            0  2  0  1     1.380     45
            0  1  1  1     1.380     46
            0  0  2  1     1.380     47
            1  0  0  3     1.550     48
            0  1  0  3     1.550     49
            0  0  1  3     1.550     50

 Total number of charge fitting functions (nprimf)       230
 Total number of Cartesian basis functions (naos)         50
 Total number of Cartesian core functions  (ncos)         15

1
 ***************************************************************************************************



                                              ***********************
                                              *  T E C H N I C A L  *
                                              ***********************
  



 =============================================================
 P A R A L L E L I Z A T I O N  and  V E C T O R I Z A T I O N
 =============================================================
  
 Nr of parallel processes:                                1
 Maximum vector length in NumInt loops:                 128



 ===============
 I O  vs.  C P U  ***  (store numerical data on disk or recalculate)  ***
 ===============
  
 Basis functions:   recalculate when needed
 Fit functions:     recalculate when needed

 IO buffersize (Mb):                                    256.000000



 =====================
 S C F   U P D A T E S
 =====================
  
 Max. nr. of cycles:                               300
 Convergence criterion:                              0.0000000100
   secondary criterion:                              0.0010000000

 Mix parameter (when DIIS does not apply):           0.2000000000


 DIIS (Direct Inversion in Iteration Space)
    Replace damping when SCF Error is below:         0.5000000000
    Apply anyway after SCF cycle:
                                                     5
    (Max.) nr. of expansion vectors:                10

    Upperbound on expansion coefficients:            5.0000000000
    (when exceeded, IterationSpace is re-built)
    2nd Upperbound on coefficients:                 25.0000000000
    (when exceeded, simple damping will be used)
 Automatic ElectronSmearing (in case of problematic SCF convergence) disabled



 =================
 P R E C I S I O N  ***  (General: NumInt, NeglectFunctionTails, ...)  ***
 =================
  

 NumInt:           Target precision:                 6.0000000000
 -------           Initial precision:                6.0000000000
                   Min. precision (optimization):    6.0000000000

 Neglect Functions:          Basis functions:        0.1000000000E-07
 ------------------          Fit functions:          0.1000000000E-07



 ===========================
 L I N E A R   S C A L I N G
 ===========================
  

 Cut-off radii density fit:                        0.1000000000E-09
 Overlap cut-off criterion AO matrix elements:     0.1000000000E-07
 Cut-offs for Coulomb potential and fitted density:0.1000000000E-09
 Cut-off criterion for Coulomb multipole terms:    0.1000000000E-09
 Progressive Convergence parameter:                 0.000000000    
1
 ***************************************************************************************************



                                            ***************************
                                            *  C O M P U T A T I O N  *
                                            ***************************
  

 Number of elements of the density matrix on this node (used, total):      1275      1275



 ====================================================
 Numerical Integration : Voronoi Polyhedra (Te Velde)  ***  (parameters, tests)  ***
 ====================================================
  
 General Accuracy Parameter :                          6.00

 Symmetry used in the points section:  ATOM  


 Summary of the Symmetry Unique Points:
 --------------------------------------
    Nr. of used Symmetry Operators                     1

    Points in the Atomic Spheres                      66
    Points in the Atomic Polyhedra                     0
    Points in the Outer Region                         0
    ----------------------------------------------------
    Total                                             66

    Sum of Weights                                 67742.736127

 Total nr. of points:         66
 Nr. of blocks:                1
 Block length:                66
 Nr. of dummy points:          0


 Test of Precision of the Numerical Integration Grid
 ===================================================

 Integral of the Total Core Density:                  27.99999949727418
 Relative Error:                                      -1.795E-08

 About initial set of coordinates
 --------------------------------
 Number of spheres               =       1
 Number of TOTAL coord.          =       1

 about final set of coordinates
 ------------------------------
 gepol%ncor,gepol%nptsaf,npsurf=       1      60      60


 -------------------------------------------
  COSMO surface
  Area             =          184.017
  Volume           =          234.726
  Number of Points =           60
 -------------------------------------------



 =====
 S C F
 =====
  

 CYCLE    1
 Orbital Data from active fragment used
 orbitals (Q,E):
 ---------------
 S :1...5            ( 2.00    -3.4886)  ( 2.00    -0.1672)  ( 0.00     0.0493)  ( 0.00     0.5490)
                     ( 0.00     4.1921)
 P :1...4            ( 6.00    -2.1658)  ( 0.00     0.0012)  ( 0.00     0.9480)  ( 0.00     6.3167)
 D :1...3            (10.00    -0.2776)  ( 0.00     0.2941)  ( 0.00     2.2279)

 COSMO charges converged: Iteration #    1 Conv  2.858771E-16
 The total uncorrected surface charge :      0.89594177
 cosmo_calcen: solen (Hartrees) =   -0.101686

 Solvation energy (screening term,uncorrected) =    -63.808915 kcal/mol

 Solvation energy (dispersion and cavitation terms) =      0.337852 kcal/mol
 Solvation Energy Contributions (Hartrees)
          esola         esolb         esolc
     0.10168598    0.00000000   -0.20337196
 esol   -0.10168598

 CYCLE    2
 d-Pmat  mean:  0.46E-02
 imax=     18: -0.38E-01
 orbitals (Q,E):
 ---------------
 S :1...3            ( 2.00    -3.4588)  ( 2.00    -0.1563)  ( 0.00     0.0537)
 P :1...2            ( 6.00    -2.1365)  ( 0.00     0.0091)
 D :1...2            (10.00    -0.2517)  ( 0.00     0.3020)

 COSMO charges converged: Iteration #    1 Conv  2.171261E-16
 The total uncorrected surface charge :      0.88507911
 cosmo_calcen: solen (Hartrees) =   -0.099235

 Solvation energy (screening term,uncorrected) =    -62.271020 kcal/mol

 Solvation energy (dispersion and cavitation terms) =      0.337852 kcal/mol
 Solvation Energy Contributions (Hartrees)
          esola         esolb         esolc
     0.09923519    0.00000000   -0.19847037
 esol   -0.09923519

 CYCLE    3
 d-Pmat  mean:  0.10E-01
 imax=     18: -0.97E-01
 orbitals (Q,E):
 ---------------
 S :1...3            ( 2.00    -3.4023)  ( 2.00    -0.1270)  ( 0.00     0.0681)
 P :1...2            ( 6.00    -2.0785)  ( 0.00     0.0310)
 D :1...2            (10.00    -0.1934)  ( 0.00     0.3224)

 COSMO charges converged: Iteration #    1 Conv  2.252811E-16
 The total uncorrected surface charge :      0.85016881
 cosmo_calcen: solen (Hartrees) =   -0.091561

 Solvation energy (screening term,uncorrected) =    -57.455569 kcal/mol

 Solvation energy (dispersion and cavitation terms) =      0.337852 kcal/mol
 Solvation Energy Contributions (Hartrees)
          esola         esolb         esolc
     0.09156128    0.00000000   -0.18312256
 esol   -0.09156128

 CYCLE    4
 d-Pmat  mean:  0.40E-02
 imax=     18:  0.21E-01
 orbitals (Q,E):
 ---------------
 S :1...3            ( 2.00    -3.4235)  ( 2.00    -0.1342)  ( 0.00     0.0647)
 P :1...2            ( 6.00    -2.0996)  ( 0.00     0.0254)
 D :1...2            (10.00    -0.2123)  ( 0.00     0.3161)

 COSMO charges converged: Iteration #    1 Conv  2.733839E-16
 The total uncorrected surface charge :      0.85975439
 cosmo_calcen: solen (Hartrees) =   -0.093638

 Solvation energy (screening term,uncorrected) =    -58.758486 kcal/mol

 Solvation energy (dispersion and cavitation terms) =      0.337852 kcal/mol
 Solvation Energy Contributions (Hartrees)
          esola         esolb         esolc
     0.09363761    0.00000000   -0.18727522
 esol   -0.09363761

 CYCLE    5
 d-Pmat  mean:  0.14E-03
 imax=     18:  0.59E-03
 orbitals (Q,E):
 ---------------
 S :1...3            ( 2.00    -3.4241)  ( 2.00    -0.1348)  ( 0.00     0.0642)
 P :1...2            ( 6.00    -2.1004)  ( 0.00     0.0248)
 D :1...2            (10.00    -0.2132)  ( 0.00     0.3156)

 COSMO charges converged: Iteration #    1 Conv  3.673206E-16
 The total uncorrected surface charge :      0.85991228
 cosmo_calcen: solen (Hartrees) =   -0.093672

 Solvation energy (screening term,uncorrected) =    -58.780070 kcal/mol

 Solvation energy (dispersion and cavitation terms) =      0.337852 kcal/mol
 Solvation Energy Contributions (Hartrees)
          esola         esolb         esolc
     0.09367200    0.00000000   -0.18734401
 esol   -0.09367200

 CYCLE    6
 d-Pmat  mean:  0.79E-05
 imax=     19: -0.65E-04
 orbitals (Q,E):
 ---------------
 S :1...3            ( 2.00    -3.4241)  ( 2.00    -0.1348)  ( 0.00     0.0642)
 P :1...2            ( 6.00    -2.1004)  ( 0.00     0.0248)
 D :1...2            (10.00    -0.2131)  ( 0.00     0.3156)

 COSMO charges converged: Iteration #    1 Conv  4.066560E-16
 The total uncorrected surface charge :      0.85991049
 cosmo_calcen: solen (Hartrees) =   -0.093672

 Solvation energy (screening term,uncorrected) =    -58.779825 kcal/mol

 Solvation energy (dispersion and cavitation terms) =      0.337852 kcal/mol
 Solvation Energy Contributions (Hartrees)
          esola         esolb         esolc
     0.09367161    0.00000000   -0.18734323
 esol   -0.09367161

 CYCLE    7
 d-Pmat  mean:  0.44E-06
 imax=     19: -0.62E-05
 orbitals (Q,E):
 ---------------
 S :1...3            ( 2.00    -3.4241)  ( 2.00    -0.1348)  ( 0.00     0.0642)
 P :1...2            ( 6.00    -2.1004)  ( 0.00     0.0248)
 D :1...2            (10.00    -0.2131)  ( 0.00     0.3156)

 COSMO charges converged: Iteration #    1 Conv  1.895743E-16
 The total uncorrected surface charge :      0.85991035
 cosmo_calcen: solen (Hartrees) =   -0.093672

 Solvation energy (screening term,uncorrected) =    -58.779806 kcal/mol

 Solvation energy (dispersion and cavitation terms) =      0.337852 kcal/mol
 Solvation Energy Contributions (Hartrees)
          esola         esolb         esolc
     0.09367158    0.00000000   -0.18734317
 esol   -0.09367158

 CYCLE    8
 d-Pmat  mean:  0.23E-08
 imax=     19:  0.36E-07
 orbitals (Q,E):
 ---------------
 S :1...3            ( 2.00    -3.4241)  ( 2.00    -0.1348)  ( 0.00     0.0642)
 P :1...2            ( 6.00    -2.1004)  ( 0.00     0.0248)
 D :1...2            (10.00    -0.2131)  ( 0.00     0.3156)

 COSMO charges converged: Iteration #    1 Conv  3.786701E-16
 The total uncorrected surface charge :      0.85991036
 cosmo_calcen: solen (Hartrees) =   -0.093672

 Solvation energy (screening term,uncorrected) =    -58.779808 kcal/mol

 Solvation energy (dispersion and cavitation terms) =      0.337852 kcal/mol
 Solvation Energy Contributions (Hartrees)
          esola         esolb         esolc
     0.09367159    0.00000000   -0.18734317
 esol   -0.09367159

 CYCLE    9
 d-Pmat  mean:  0.33E-10
 imax=     18: -0.29E-09
 orbitals (Q,E):
 ---------------
 S :1...3            ( 2.00    -3.4241)  ( 2.00    -0.1348)  ( 0.00     0.0642)
 P :1...2            ( 6.00    -2.1004)  ( 0.00     0.0248)
 D :1...2            (10.00    -0.2131)  ( 0.00     0.3156)

 SCF CONVERGED

 COSMO charges converged: Iteration #    1 Conv  2.220339E-16
 The total uncorrected surface charge :      0.85991036
 cosmo_calcen: solen (Hartrees) =   -0.093672

 Solvation energy (screening term,uncorrected) =    -58.779808 kcal/mol

 Solvation energy (dispersion and cavitation terms) =      0.337852 kcal/mol
 Solvation Energy Contributions (Hartrees)
          esola         esolb         esolc
     0.09367159    0.00000000   -0.18734317
 esol   -0.09367159

 CYCLE   10
1
 ***************************************************************************************************



                                                *******************
                                                *  R E S U L T S  *
                                                *******************
  
 *** Setting up for NEW gradients in focky
 *** Using FIT density in focky

 Scaled ZORA Orbital Energies, per Irrep and Spin:
 =================================================
                        Occup              E (au)              E (eV)       Diff (eV) with prev. cycle
                        -----      --------------------        ------       --------------------------
 S
               1        2.000     -0.34241283730077E+01       -93.175              -7.59E-11
               2        2.000     -0.13483847609226E+00        -3.669              -5.93E-11
               3        0.000      0.64165263274152E-01         1.746
               4        0.000      0.58461461370389E+00        15.908
               5        0.000      0.42514529408009E+01       115.688
 P
               1        6.000     -0.21003666572073E+01       -57.154              -7.58E-11
               2        0.000      0.24784054269880E-01         0.674
               3        0.000      0.10009471685425E+01        27.237
               4        0.000      0.63779040417400E+01       173.552
 D
               1       10.000     -0.21314968275200E+00        -5.800              -6.89E-11
               2        0.000      0.31555941303801E+00         8.587
               3        0.000      0.22864142420729E+01        62.216
  
 HOMO :        2 S                -0.13483847609226E+00
 LUMO :        2 P                 0.24784054269880E-01
  


 Orbital Energies, all Irreps
 ========================================

 Irrep        no.  (spin)   Occup              E (au)                E (eV)
 ---------------------------------------------------------------------------
 S             1             2.00       -0.34241283730077E+01       -93.1753
 P             1             6.00       -0.21003666572073E+01       -57.1539
 D             1            10.00       -0.21314968275200E+00        -5.8001
 S             2             2.00       -0.13483847609226E+00        -3.6691
 P             2             0.00        0.24784054269880E-01         0.6744
 S             3             0.00        0.64165263274152E-01         1.7460
 D             2             0.00        0.31555941303801E+00         8.5868
 S             4             0.00        0.58461461370389E+00        15.9082
 P             3             0.00        0.10009471685425E+01        27.2372
 D             3             0.00        0.22864142420729E+01        62.2165
 S             5             0.00        0.42514529408009E+01       115.6879
 P             4             0.00        0.63779040417400E+01       173.5516

 COSMO charges converged: Iteration #    1 Conv  3.695678E-16
 The total uncorrected surface charge :      0.85991036
 cosmo_calcen: solen (Hartrees) =   -0.093672

 Solvation energy (screening term,uncorrected) =    -58.779808 kcal/mol

 Solvation energy (dispersion and cavitation terms) =      0.337852 kcal/mol
 Solvation Energy Contributions (Hartrees)
          esola         esolb         esolc
     0.09367159    0.00000000   -0.18734317
 esol   -0.09367159


 Scaled ZORA Orbital Energies of the Core Orbitals:
 ==================================================

 (Note that the atoms are grouped by atomtype, see the labels, and may hence NOT be in input order)

 AtomType  Orbital  Atom                   E (au)                        E (eV)
 --------  -------  ----           --------------------        ----------------
 Ag          1S        1          -0.93050021353972E+03              -25320.199
             2S        1          -0.13694588320075E+03               -3726.487
             3S        1          -0.25052282314608E+02                -681.707
             2P        1          -0.12279715079433E+03               -3341.480
             3P        1          -0.20435813703947E+02                -556.087
             3D        1          -0.13135573635948E+02                -357.437


 Fit test: (difference of exact and fit density, squared integrated, result summed over spins)
         Sum-of-Fragments:                             0.00000026094437
         Orthogonalized Fragments:                     0.00000026094437
         SCF:                                          0.00000027113450



 ==========================
 Electron Density at Nuclei
 ==========================
  
 The electron density is calculated at points on a small sphere around the center of a nucleus.
 The printed electron density is the average electron density on these points.
 The radius of the sphere is the printed approximate finite nuclear radius.

         Atom        Nuclear Radius (Angstrom)             Electron Density (a.u.)
         ----        -------------------------             -----------------------
     1)   Ag                0.0000585966                           141150.43048



 =======================================
 M U L L I K E N   P O P U L A T I O N S
 =======================================
  
 The survey below gives for each atom:
 a) the total charge (Z minus electrons)
 b) the net spin polarization (nr of electrons spin-A minus spin-B)
 c) for each spin the atomic electron valence density (integrated) per L-value.

 Atom              Charge    Spin density          S         P         D         F
 ----              ------    ------------       ------    ------    ------    ------
 1 Ag             -1.0000                       4.0000    6.0000   10.0000    0.0000

 Populations of individual BAS functions
 ----------------------------------------
 1 Ag          -0.0087  0.0045 -0.0728  0.0003  0.0003  0.0003  0.0270  0.0270  0.0270  0.0382
                0.0574  0.0574  0.0382  0.0574  0.0382  1.3411  0.7548  0.5818  1.0908  0.3084
                0.7469  0.7469  0.7469  1.0685  1.0685  1.0685  0.1561  0.1561  0.1561  0.5481
                0.8221  0.8221  0.5481  0.8221  0.5481  0.6225  0.9338  0.9338  0.6225  0.9338
                0.6225  0.1245  0.1868  0.1868  0.1245  0.1868  0.1245  0.0012  0.0012  0.0012

 Gross Charges per Atom (Z minus electrons)
 ==========================================
            -1.0000
 Net Total: -1.00000000


 Atom-Atom Population Matrix (off-diagonal elements not doubled)
 ===============================================================

     1 :    20.0000



 =================================================
 H I R S H F E L D   C H A R G E   A N A L Y S I S
 =================================================
  
 For each fragment: the (numerical) integral of rho(scf) * rho(fragment)/rho(sum-of-fragments)
 (nuclear charges are included, electrons are counted negative)

 The fragments and their ordering are defined in the early G E O M E T R Y output section.
 If you use single-atom fragments, this usually implies that all atoms of the same
 chemical type are grouped together. This may not be the order in which you listed them
 in the input file!

    1  Ag                       -1.0000

 Sum of these charges (accuracy NumInt/Tails) =          -0.99999951



 =============================
 V O R O N O I   C H A R G E S
 =============================
  
 For each atom: the (numerical) integral of the total electronic charge density in its Voronoi cell,
 i.e. the region of space that is closer to that atom than to any other atom.
[...]
  Coulomb (Steric+OrbInt) Energy:   -0.157741721067747         -4.2924           -98.98          -414.15
  XC Energy:                        -0.187752085353948         -5.1090          -117.82          -492.94
  Solvation:                        -0.093134590660629         -2.5343           -58.44          -244.52
                                  --------------------     -----------       ----------      -----------
  Total Bonding Energy:             -0.145455394066603         -3.9580           -91.27          -381.89


Correction terms (incorporated in energies above; only for test purposes):

1. Indication of fit-quality: 1st-order fit-correction used in the energy (hartree):   0.0000954877
2. Electrostatic (Fit correction):   0.0000000000

Scaled ZORA energy correction, not included in bonding energy (hartree):            0.0000105419
 WARNING: This scaled ZORA energy correction should only be used to compare two calculations
 in which the only difference in the calculation is the electron configuration.
 Then the difference in energy of this term should be added to the difference in energy of
 the two electron configurations.
 This term should not be used otherwise.
 In practice it is useful only for core excitation energy calculations.



 =========================================
 F R A G M E N T   E N E R G Y   T E R M S  ***  (summed over all fragments)  ***
 =========================================
  

The energy terms below are (parts of) the Total Energy of the fragments from which the molecule
 is built.

Exchange and Correlation
  Exchange LDA:                   -139.955900879892113      -3808.3938        -87823.66       -367454.17
  Exchange GGA:                     -7.567746069825608       -205.9288         -4748.83        -19869.11
  Correlation LDA:                  -4.478315715865534       -121.8612         -2810.19        -11757.82
  Correlation GGA:                   1.643059960633902         44.7099          1031.04          4313.85
                                  --------------------     -----------       ----------      -----------
  Total XC:                       -150.358902704949344      -4091.4739        -94351.65       -394767.24
1



 =======================================================
 S F O   P O P U L A T I O N S ,   M O   A N A L Y S I S
 =======================================================
  
 A Mulliken population analysis is performed on (input-)selected MOs. All populations refer to SFOs.
 BAS populations may have been printed directly after the SCF part.


                                       === S ===


 SFO contributions (%) per orbital
 (multiplication by the orbital occupation yields the SFO Gross Populations)

 Orb.:        1      2      3      4      5
 occup:     2.00   2.00   0.00   0.00   0.00
 CF+SFO     ----   ----   ----   ----   ----
 ------
      4:  100.00   0.00   0.00   0.00   0.00
      5:    0.00  99.36   0.55   0.09   0.00
      6:    0.00   0.56  99.40   0.04   0.00
      7:    0.00   0.08   0.05  99.87   0.00
      8:    0.00   0.00   0.00   0.00 100.00


 Summation over all MOs, multiplied by occupation: Total SFO Gross Populations in this Irrep
 ===========================================================================================

     0.00    0.00    0.00    2.00    1.99    0.01    0.00    0.00


                                       === P:x ===


 SFO contributions (%) per orbital
 (multiplication by the orbital occupation yields the SFO Gross Populations)

 Orb.:        1      2      3      4
 occup:     2.00   0.00   0.00   0.00
 CF+SFO     ----   ----   ----   ----
 ------
      3:  100.00   0.00   0.00   0.00
      4:    0.00  99.95   0.05   0.00
      5:    0.00   0.05  99.95   0.00
      6:    0.00   0.00   0.00 100.00


 Summation over all MOs, multiplied by occupation: Total SFO Gross Populations in this Irrep
 ===========================================================================================

     0.00    0.00    2.00    0.00    0.00    0.00


                                       === P:y ===


 SFO contributions (%) per orbital
 (multiplication by the orbital occupation yields the SFO Gross Populations)

 Orb.:        1      2      3      4
 occup:     2.00   0.00   0.00   0.00
 CF+SFO     ----   ----   ----   ----
 ------
      3:  100.00   0.00   0.00   0.00
      4:    0.00  99.95   0.05   0.00
      5:    0.00   0.05  99.95   0.00
      6:    0.00   0.00   0.00 100.00


 Summation over all MOs, multiplied by occupation: Total SFO Gross Populations in this Irrep
 ===========================================================================================

     0.00    0.00    2.00    0.00    0.00    0.00


                                       === P:z ===


 SFO contributions (%) per orbital
 (multiplication by the orbital occupation yields the SFO Gross Populations)

 Orb.:        1      2      3      4
 occup:     2.00   0.00   0.00   0.00
 CF+SFO     ----   ----   ----   ----
 ------
      3:  100.00   0.00   0.00   0.00
      4:    0.00  99.95   0.05   0.00
      5:    0.00   0.05  99.95   0.00
      6:    0.00   0.00   0.00 100.00


 Summation over all MOs, multiplied by occupation: Total SFO Gross Populations in this Irrep
 ===========================================================================================

     0.00    0.00    2.00    0.00    0.00    0.00


                                       === D:z2 ===


 SFO contributions (%) per orbital
 (multiplication by the orbital occupation yields the SFO Gross Populations)

 Orb.:        1      2      3
 occup:     2.00   0.00   0.00
 CF+SFO     ----   ----   ----
 ------
      4:   99.96   0.04   0.00
      5:    0.04  99.96   0.00
      6:    0.00   0.00  99.99


 Summation over all MOs, multiplied by occupation: Total SFO Gross Populations in this Irrep
 ===========================================================================================

     0.00    0.00    0.00    2.00    0.00    0.00


                                       === D:x2-y2 ===


 SFO contributions (%) per orbital
 (multiplication by the orbital occupation yields the SFO Gross Populations)

 Orb.:        1      2      3
 occup:     2.00   0.00   0.00
 CF+SFO     ----   ----   ----
 ------
      3:   99.96   0.04   0.00
      4:    0.04  99.96   0.00
      5:    0.00   0.00  99.99


 Summation over all MOs, multiplied by occupation: Total SFO Gross Populations in this Irrep
 ===========================================================================================

     0.00    0.00    2.00    0.00    0.00


                                       === D:xy ===


 SFO contributions (%) per orbital
 (multiplication by the orbital occupation yields the SFO Gross Populations)

 Orb.:        1      2      3
 occup:     2.00   0.00   0.00
 CF+SFO     ----   ----   ----
 ------
      2:   99.96   0.04   0.00
      3:    0.04  99.96   0.00
      4:    0.00   0.00  99.99


 Summation over all MOs, multiplied by occupation: Total SFO Gross Populations in this Irrep
 ===========================================================================================

     0.00    2.00    0.00    0.00


                                       === D:xz ===


 SFO contributions (%) per orbital
 (multiplication by the orbital occupation yields the SFO Gross Populations)

 Orb.:        1      2      3
 occup:     2.00   0.00   0.00
 CF+SFO     ----   ----   ----
 ------
      2:   99.96   0.04   0.00
      3:    0.04  99.96   0.00
      4:    0.00   0.00  99.99


 Summation over all MOs, multiplied by occupation: Total SFO Gross Populations in this Irrep
 ===========================================================================================

     0.00    2.00    0.00    0.00


                                       === D:yz ===


 SFO contributions (%) per orbital
 (multiplication by the orbital occupation yields the SFO Gross Populations)

 Orb.:        1      2      3
 occup:     2.00   0.00   0.00
 CF+SFO     ----   ----   ----
 ------
      2:   99.96   0.04   0.00
      3:    0.04  99.96   0.00
      4:    0.00   0.00  99.99


 Summation over all MOs, multiplied by occupation: Total SFO Gross Populations in this Irrep
 ===========================================================================================

     0.00    2.00    0.00    0.00



 List of all MOs, ordered by energy, with the most significant SFO gross populations
 ===================================================================================

 Each percentage contribution in the table below corresponds to the indicated SFO.
 In general, a SFO may be a linear combination of several Fragment Orbitals on the same,
 or on symmetry-related Fragments. Only the first 'member' of such a combination is
 specified here. A full definition of all SFOs is given in an earlier part of the output.
 The numbering of the SFOs in this table does NOT include the Core Orbitals, and starts
 from one for each symmetry representation, as in the SFO definition list earlier.

       E(eV)  Occ       MO           %     SFO (first member)   E(eV)  Occ   Fragment
 -------------------------------------------------------------------------------------

      -5.801  2.00     1 D:z2      99.96%     1 D:z2           -7.554  2.00     1 Ag
                                    0.04%     2 D:z2            8.004  0.00     1 Ag
      -5.801  2.00     1 D:x2-y2   99.96%     1 D:x2-y2        -7.554  2.00     1 Ag
                                    0.04%     2 D:x2-y2         8.004  0.00     1 Ag
      -5.801  2.00     1 D:xy      99.96%     1 D:xy           -7.554  2.00     1 Ag
                                    0.04%     2 D:xy            8.004  0.00     1 Ag
      -5.801  2.00     1 D:xz      99.96%     1 D:xz           -7.554  2.00     1 Ag
                                    0.04%     2 D:xz            8.004  0.00     1 Ag
      -5.801  2.00     1 D:yz      99.96%     1 D:yz           -7.554  2.00     1 Ag
                                    0.04%     2 D:yz            8.004  0.00     1 Ag
      -3.669  2.00     2 S         99.36%     2 S              -4.550  1.00     1 Ag
                                    0.56%     3 S               1.341  0.00     1 Ag
       0.674  0.00     2 P:x       99.95%     2 P:x             0.034  0.00     1 Ag
                                    0.05%     3 P:x            25.801  0.00     1 Ag
       0.674  0.00     2 P:y       99.95%     2 P:y             0.034  0.00     1 Ag
                                    0.05%     3 P:y            25.801  0.00     1 Ag
       0.674  0.00     2 P:z       99.95%     2 P:z             0.034  0.00     1 Ag
                                    0.05%     3 P:z            25.801  0.00     1 Ag
       1.746  0.00     3 S         99.40%     3 S               1.341  0.00     1 Ag
                                    0.55%     2 S              -4.550  1.00     1 Ag



 ===============================================================================
 Electrostatic potential at the Nuclei due to valence electrons and other nuclei
 ===============================================================================
  
         Atom                  Potential
         ----                  ---------
     1)   Ag                 21.39772490
 
 
 ========================
 No memory problems found
 ========================
 
 Maximum number of active allocate calls:         586
 
 *******************************************************************************

                             A D F   E X I T
 NORMAL TERMINATION



 =================
 Timing Statistics
 =================
  
 Total Used :                     CPU=        0.35      System=        0.17     Elapsed=        1.61

 Calls  Section                     ( Mean, Percentage )
 ---------------------------------------------------------------------------------------------------
     3  ><      ................      0.00    0.00             0.00    0.00             0.01    1.63
     1  INIT    ................      0.01    2.86             0.01    5.88             0.16    9.81
     1  GEOMET  ................      0.02    5.71             0.14   82.35             0.34   21.43
     1  FRAGM   ................      0.02    5.71             0.00    0.00             0.15    9.41
     1  INPUTA  ................      0.00    0.00             0.00    0.00             0.00    0.02
     1  ATDEN   ................      0.02    5.71             0.00    0.00             0.02    1.18
     1  MAINSY  ................      0.02    5.71             0.00    0.00             0.10    6.27
     1  SYMFIT  ................      0.00    0.00             0.00    0.00             0.01    0.79
     1  CORORT  ................      0.00    0.00             0.00    0.00             0.00    0.04
     1  SYMORB  ................      0.00    0.00             0.00    0.00             0.01    0.49
     1  FITINT  ................      0.02    5.71             0.00    0.00             0.02    0.93
     1  CLSMAT  ................      0.00    0.00             0.00    0.00             0.00    0.02
     1  ORTHON  ................      0.00    0.00             0.00    0.00             0.03    1.75
     1  ETALOW  ................      0.00    0.00             0.00    0.00             0.00    0.23
     1  GENPT   ................      0.02    5.71             0.00    0.00             0.04    2.65
     1  PTBAS   ................      0.00    0.00             0.00    0.00             0.02    1.31
    10  FOCKY   ................      0.01   31.43             0.00    5.88             0.03   15.59
    10  FOCKTR  ................      0.00    0.00             0.00    0.00             0.00    0.47
    10  FOCKNM  ................      0.00    0.00             0.00    0.00             0.00    0.03
    10  SDIIS   ................      0.00    0.00             0.00    0.00             0.00    0.57
    10  EMERGE  ................      0.00    8.57             0.00    0.00             0.01    5.18
     1  COREPS  ................      0.02    5.71             0.00    0.00             0.03    2.15
     1  TOTEN   ................      0.02    5.71             0.00    0.00             0.05    3.09
     1  POPAN   ................      0.00    0.00             0.00    0.00             0.05    3.26
     1  DEBYE   ................      0.00    0.00             0.00    0.00             0.00    0.07
     1  INPUTE  ................      0.00    0.00             0.00    0.00             0.02    0.96
     1  SYMORE  ................      0.00    0.00             0.00    0.00             0.00    0.06
     2  METS    ................      0.00    0.00             0.00    0.00             0.00    0.05
     1  CETS    ................      0.00    0.00             0.01    5.88             0.01    0.40
     1  ELNRGY  ................      0.00    0.00             0.00    0.00             0.00    0.07
     1  POPUL   ................      0.01    2.86             0.00    0.00             0.12    7.19
     1  QMPOT   ................      0.00    0.00             0.00    0.00             0.00    0.25
     1  EXIT PROCEDURE .........      0.03    8.57             0.00    0.00             0.04    2.67


 Currently Open Files (EXIT00)
 ====================

 Unit    Access Format  Status   Type       Ident (file)
 -------------------------------------------------------
   3      SEQ    FORM   TRANSP  NORMAL      LOGFILE
                                          ( logfile )


 Buffered I/O statistics
 =======================
 Memory available:                    268435456
 Number of records fitting in memory:     64527
 Input :   4.2% of                         5360  *4k bytes
 Output:  10.1% of                         2355  *4k bytes
 Records from serial files evicted:           0
                    others evicted:           0
 Hash table lookups:      20943 with          0 conflicts (  0.00%)

 ***************************************************************************************************
 (LOGFILE)
 <Dec11-2013> <14:10:40>  DIRAC 2012.01  RunTime: Dec11-2013 14:10:40  Nodes: 1  Procs: 1
 <Dec11-2013> <14:10:40>  NORMAL TERMINATION
 <Dec11-2013> <14:10:41>  END
 <Dec11-2013> <14:10:41>  ADF 2012.01  RunTime: Dec11-2013 14:10:41  Nodes: 1  Procs: 1
 <Dec11-2013> <14:10:42>  Silver (TZP, 3d frozen)
 <Dec11-2013> <14:10:42>  RunType   : CREATE
 <Dec11-2013> <14:10:42>  Net Charge: 0 (Nuclei minus Electrons)
 <Dec11-2013> <14:10:42>  Symmetry  : ATOM
 <Dec11-2013> <14:10:42>  >>>> CORORT
 <Dec11-2013> <14:10:42>  >>>> FITINT
 <Dec11-2013> <14:10:42>  >>>> CLSMAT
 <Dec11-2013> <14:10:42>  >>>> ORTHON
 <Dec11-2013> <14:10:42>  >>>> GENPT
 <Dec11-2013> <14:10:42>  Acc.Num.Int.=  10.000
 <Dec11-2013> <14:10:42>  Block Length=  94
 <Dec11-2013> <14:10:42>  >>>> PTBAS
 <Dec11-2013> <14:10:42>  >>>> CYCLE
 <Dec11-2013> <14:10:42>    1
 <Dec11-2013> <14:10:42>    2  ErrMat   0.02728591  MaxEl  0.00887264
 <Dec11-2013> <14:10:43>    3  ErrMat   0.05713964  MaxEl -0.01729688
 <Dec11-2013> <14:10:43>    4  ErrMat   0.00229105  MaxEl -0.00078765
 <Dec11-2013> <14:10:43>    5  ErrMat   0.00007667  MaxEl  0.00002781
 <Dec11-2013> <14:10:43>    6  ErrMat   0.00000030  MaxEl -0.00000012
 <Dec11-2013> <14:10:43>    7  ErrMat   0.00000001  MaxEl  0.00000000
 <Dec11-2013> <14:10:43>  SCF converged
 <Dec11-2013> <14:10:43>    8  ErrMat   0.00000000  MaxEl  0.00000000
 <Dec11-2013> <14:10:43>   Solutions with partially occupied orbitals may not be
 <Dec11-2013> <14:10:43>   lowest in energy. You might consider lowering the
 <Dec11-2013> <14:10:43>   symmetry in the input and explicitly specifying integer
 <Dec11-2013> <14:10:43>   occupations. In that case always check that you obtain
 <Dec11-2013> <14:10:43>   an aufbau solution.
 <Dec11-2013> <14:10:43>  >>>> POPAN
 <Dec11-2013> <14:10:43>  >>>> DEBYE
 <Dec11-2013> <14:10:43>  NORMAL TERMINATION
 <Dec11-2013> <14:10:43>  END
 <Dec11-2013> <14:10:44>  ADF 2012.01  RunTime: Dec11-2013 14:10:44  Nodes: 1  Procs: 1
 <Dec11-2013> <14:10:44>  Au20 cluster optimization with 4f frozen core - td structure
 <Dec11-2013> <14:10:44>  RunType   : SINGLE POINT
 <Dec11-2013> <14:10:44>  Net Charge: -1 (Nuclei minus Electrons)
 <Dec11-2013> <14:10:44>  Symmetry  : ATOM
 <Dec11-2013> <14:10:44>  >>>> FRAGM
 <Dec11-2013> <14:10:44>  >>>> CORORT
 <Dec11-2013> <14:10:44>  >>>> FITINT
 <Dec11-2013> <14:10:44>  >>>> CLSMAT
 <Dec11-2013> <14:10:44>  >>>> ORTHON
 <Dec11-2013> <14:10:44>  >>>> GENPT
 <Dec11-2013> <14:10:44>  Acc.Num.Int.=   6.000
 <Dec11-2013> <14:10:44>  Block Length=  66
 <Dec11-2013> <14:10:44>  >>>> PTBAS
 <Dec11-2013> <14:10:44>  >>>> SURPTS
 <Dec11-2013> <14:10:44>  >>>> CYCLE
 <Dec11-2013> <14:10:45>  Orbital Data from active fragment used
 <Dec11-2013> <14:10:45>    1
 <Dec11-2013> <14:10:45>    2  ErrMat   0.16651419  MaxEl -0.07142459
 <Dec11-2013> <14:10:45>    3  ErrMat   0.07982138  MaxEl -0.04264255
 <Dec11-2013> <14:10:45>    4  ErrMat   0.08212297  MaxEl  0.02657037
 <Dec11-2013> <14:10:45>    5  ErrMat   0.00182565  MaxEl  0.00051569
 <Dec11-2013> <14:10:45>    6  ErrMat   0.00017309  MaxEl  0.00005693
 <Dec11-2013> <14:10:45>    7  ErrMat   0.00000507  MaxEl  0.00000210
 <Dec11-2013> <14:10:45>    8  ErrMat   0.00000003  MaxEl  0.00000001
 <Dec11-2013> <14:10:45>    9  ErrMat   0.00000000  MaxEl  0.00000000
 <Dec11-2013> <14:10:45>  SCF converged
 <Dec11-2013> <14:10:45>   10  ErrMat   0.00000000  MaxEl  0.00000000
 <Dec11-2013> <14:10:45>  >>>> TOTEN
 <Dec11-2013> <14:10:45>  >>>> POPAN
 <Dec11-2013> <14:10:45>  >>>> DEBYE
 <Dec11-2013> <14:10:45>  >>>> AMETS
 <Dec11-2013> <14:10:45>   Bond Energy          -0.14545539 a.u.
 <Dec11-2013> <14:10:45>   Bond Energy          -3.95804266 eV
 <Dec11-2013> <14:10:45>   Bond Energy         -91.27       kcal/mol
 <Dec11-2013> <14:10:45>  >>>> POPUL
 <Dec11-2013> <14:10:45>  NORMAL TERMINATION
 <Dec11-2013> <14:10:45>  END
