
 *******************************************************************************
 *                                                                             *
 *  -------------------------------------                                      *
 *   Amsterdam Density Functional  (ADF)         2012.01   January 26, 2012    *
 *  -------------------------------------                                      *
 *                                               Build 201201262206            *
 *                                                                             *
 *                                                                             *
 *                            =====================                            *
 *                            |                   |                            *
 *                            |     D I R A C     |                            *
 *                            |                   |                            *
 *                            =====================                            *
 *                                                                             *
 *                                                                             *
 *   Online information and documentation:  http://www.scm.com                 *
 *   E-mail:  support@scm.com   info@scm.com                                   *
 *                                                                             *
 *   Scientific publications using ADF results must be properly referenced     *
 *   See the User Manuals (or the web site) for recommended citations          *
 *   The terms and conditions of the End User License Agreement apply to       *
 *   the use of ADF, http://www.scm.com/Sales/LicAgreement.html                *
 *                                                                             *
 *****************************  pentium64_linux  *******************************
 
 DIRAC 2012.01  RunTime: Sep01-2015 10:40:22  Nodes: 1  Procs: 1

 Temporary files are created in /tmp/2101450.1.batch.q/kid_0.xC4Uiw

1
 SILVER ATOM 3d CORE RELATIVISTIC, Point Nuc, A and c from li
 N J RN H ZN XION ANUC CLIGHT
 5000   15100.00000000197.36710137 47.00000000  0.00000000  106.905093  0.1370360E+03
  PH   PHI     EPS        DEL        DELRVR
  0.30  0.30     2500.00  0.00001000  0.00001000
 IDIRC  NC1  NDEBU NPRIN  IPUN IRCOR IWCOR
   1   300     0     0     0     0     9
   XALPHA      XLATTER      RNUC
  0.70000000  0.00000000  0.00000000 Point Charge
   XN   XL   XJ      XE          XZ      XDELL
  1.0  0.0  0.5   -1500.000       2.000     0.00000
  2.0  0.0  0.5    -325.000       2.000     0.00000
  2.0  1.0  0.5    -325.000       2.000     0.00000
  2.0  1.0  1.5    -325.000       4.000     0.00000
  3.0  0.0  0.5     -70.000       2.000     0.00000
  3.0  1.0  0.5     -70.000       2.000     0.00000
  3.0  1.0  1.5     -70.000       4.000     0.00000
  3.0  2.0  1.5     -60.000       4.000     0.00000
  3.0  2.0  2.5     -60.000       6.000     0.00000
  4.0  0.0  0.5     -10.000       2.000     0.00000
  4.0  1.0  0.5     -10.000       2.000     0.00000
  4.0  1.0  1.5     -10.000       4.000     0.00000
  4.0  2.0  1.5      -1.000       4.000     0.00000
  4.0  2.0  2.5      -1.000       6.000     0.00000
  5.0  0.0  0.5      -0.500       1.000     0.00000
 ICORP=  0  NPCL=  0  DEMP=0.00  PEPS=0.000000
 R(1)=  0.1000000E-08 D=  0.1005080E+01 RNUC=  0.0000000E+00
 converged at cycle   37  DENSITY AVERAGING    0.1536
  MAXIMUM ERROR IN R.V(R) IS   0.73266205E-05
 Q,EY,EV,EZ,ESUM,ETOT,RHO  0.470000E+02 -0.196167E+03 -0.876390E+04 -0.128962E+05 -0.319969E+04 -0.531488E+04  0.734901E-11


 DIRAC CALCULATION
1                    SILVER ATOM 3d CORE RELATIVISTIC, Point Nuc, A and c from libtc


 EXCHANGE COEFFICIENT=  0.7000000           TAIL CORRECTION=  0.           NUCLEAR RADIUS=  0.000E+00
0                       ORBITAL    N    L    J     ELECTRONS     EIGENVALUE                DELTA OF EIGENV.

                          1S1/2  1.0  0.0  0.5     2.000       -0.9298445E+03                 0.2273091E-04
                          2S1/2  2.0  0.0  0.5     2.000       -0.1369628E+03                 0.3639498E-04
                          2P1/2  2.0  1.0  0.5     2.000       -0.1273849E+03                 0.3693015E-04
                          2P3/2  2.0  1.0  1.5     4.000       -0.1209397E+03                 0.3702741E-04
                          3S1/2  3.0  0.0  0.5     2.000       -0.2508734E+02                 0.1716513E-04
                          3P1/2  3.0  1.0  0.5     2.000       -0.2126622E+02                 0.1799299E-04
                          3P3/2  3.0  1.0  1.5     4.000       -0.2012758E+02                 0.1718269E-04
                          3D3/2  3.0  2.0  1.5     4.000       -0.1333155E+02                 0.2053383E-04
                          3D5/2  3.0  2.0  2.5     6.000       -0.1310170E+02                 0.2025648E-04
                          4S1/2  4.0  0.0  0.5     2.000       -0.3467319E+01                 0.6825765E-06
                          4P1/2  4.0  1.0  0.5     2.000       -0.2259901E+01                 0.4193829E-06
                          4P3/2  4.0  1.0  1.5     4.000       -0.2069785E+01                 0.2705207E-06
                          4D3/2  4.0  2.0  1.5     4.000       -0.2640772E+00                 0.3034642E-06
                          4D5/2  4.0  2.0  2.5     6.000       -0.2433402E+00                 0.3285318E-06
                          5S1/2  5.0  0.0  0.5     1.000       -0.1450750E+00                 0.2931479E-06


                                        NUCLEAR CHARGE=   47.000000
                            INTEGRAL OF CHARGE DENSITY=   47.000000
                           SUM OF THE ORBITAL ENERGIES=  -3199.6921
                                          TOTAL ENERGY=  -5314.8812
                                        KINETIC ENERGY=   5564.2055
                             NUCLEAR ATTRACTION ENERGY= -12896.1922
                             ELECTRON REPULSION ENERGY=   2164.2310
                                       EXCHANGE ENERGY=   -147.1255

 *******************************************************************************

                             D I R A C   E X I T
 NORMAL TERMINATION



 =================
 Timing Statistics
 =================
  
 Total Used :                     CPU=        0.62      System=        0.11     Elapsed=        1.05

 Calls  Section                     ( Mean, Percentage )
 ---------------------------------------------------------------------------------------------------
     2  ><      ................      0.00    0.00             0.00    0.00             0.00    0.00
     1  EXIT PROCEDURE .........      0.62  100.00             0.11  100.00             1.05  100.00


 Currently Open Files (EXIT00)
 ====================

 Unit    Access Format  Status   Type       Ident (file)
 -------------------------------------------------------
   3      SEQ    FORM   TRANSP  NORMAL      LOGFILE
                                          ( logfile )


 Buffered I/O statistics
 =======================
 Memory available:                    268435456
 Number of records fitting in memory:     64527
 Input : 100.0% of                            0  *4k bytes
 Output: 100.0% of                            0  *4k bytes
 Records from serial files evicted:           0
                    others evicted:           0
 Hash table lookups:          0 with          0 conflicts (100.00%)
(INPUT FILE)
Create Ag   file=/homes/cmaikens/adf2012.01/atomicdata/ZORA/TZP/Ag.3d
XC
GGA Becke Perdew
End
relativistic ZORA
Corepotentials t12.rel
End Input

 *******************************************************************************
 *                                                                             *
 *  -------------------------------------                                      *
 *   Amsterdam Density Functional  (ADF)         2012.01   January 26, 2012    *
 *  -------------------------------------                                      *
 *                                               Build 201201262307            *
 *                                                                             *
 *                                                                             *
 *                              =================                              *
 *                              |               |                              *
 *                              |     A D F     |                              *
 *                              |               |                              *
 *                              =================                              *
 *                                                                             *
 *                                                                             *
 *   Online information and documentation:  http://www.scm.com                 *
 *   E-mail:  support@scm.com   info@scm.com                                   *
 *                                                                             *
 *   Scientific publications using ADF results must be properly referenced     *
 *   See the User Manuals (or the web site) for recommended citations          *
 *   The terms and conditions of the End User License Agreement apply to       *
 *   the use of ADF, http://www.scm.com/Sales/LicAgreement.html                *
 *                                                                             *
 **********************  pentium64_linux / platform_mpi  ***********************
 
 ADF 2012.01  RunTime: Sep01-2015 10:40:25  Nodes: 1  Procs: 1

 Temporary files are created in /tmp/2101450.1.batch.q/kid_0.6wPYTd

 Silver (TZP, 3d frozen)



 ===========================
 A T T A C H E D   F I L E S
 ===========================
  
 CREATE - Data File:    /homes/cmaikens/adf2012.01/atomicdata/ZORA/TZP/Ag.3d
                        Silver (TZP, 3d frozen)
 Core Potentials:
         file : t12.rel



 ===============================
 M O D E L   P A R A M E T E R S
 ===============================
  
 DENSITY FUNCTIONAL POTENTIAL (scf)
    LDA:                               VWN                                      
    Gradient Corrections:              Becke88 Perdew86                        == Not Default ==

 SPIN  (restricted / unrestr.)
    Molecule:                          Restricted                               

 OTHER ASPECTS
    Relativistic Corrections:          scalar (ZORA,SAPA)                       *** SPECIAL ***

    Nuclear Charge Density Model:      Point Charge Nuclei                                                                                                                                                                                     
    Core Treatment:                    Frozen Orbital(s)                        

    Electric Field:                    ---                                      

    Hyperfine or Zeeman Interaction:   ---                                      



 =====================================
 S Y M M E T R Y ,   E L E C T R O N S
 =====================================
  
 Symmetry: ATOM

 Irreducible Representations, including subspecies
 -------------------------------------------------
 S
 P:x  P:y  P:z
 D:z2  D:x2-y2  D:xy  D:xz  D:yz
 F:z3  F:z  F:xyz  F:z2x  F:z2y  F:x  F:y


 Configuration of Valence Electrons
 ==================================

          Occupation Numbers
          -------------------------------------------------
 S        2 1
 P        6
 D        10
 F        0
          -------------------------------------------------

 Total:   19

 Net Charge: 0 (Nuclei minus Electrons)

 Preset values for MO occupations will be applied through SCF cycle no. 1000000
 Thereafter, the program will assign electrons to MOs that are spatially
 similar to the occupied MOs in a "reference" cycle ("KeepOrbitals").
 The reference cycle is always the PREVIOUS cycle: it will evolve with
 the SCF procedure.



 ================================
 (Slater-type)  F U N C T I O N S  ***  (Basis and Fit)  ***
 ================================
  

 Atom Type    1  (Ag)
 ==============

 Valence Basis Sets:  18
 -----------------------
   1 S   30.800000
   2 S   20.300000
   3 S    9.550000
   2 P   21.100000
   3 P   10.100000
   3 D   11.650000
   4 S    6.350000
   4 S    4.050000
   5 S    2.600000
   5 S    1.550000
   5 S    0.950000
   4 P    6.150000
   4 P    4.150000
   4 P    2.900000
   4 D    4.750000
   4 D    2.600000
   4 D    1.380000
   5 P    1.550000

 Frozen Core Shells
 ------------------
    S:  3
    P:  2
    D:  1

 Charge Fitting Sets (for the computation of the Coulomb Potential):  51
 -----------------------------------------------------------------------
   1 S   61.600000
   1 S   36.350000
   2 S   39.760000
   3 S   38.850000
   3 S   27.540000
   4 S   25.820000
   4 S   19.060000
   5 S   17.540000
   5 S   13.330000
   6 S   12.140000
   6 S    9.440000
   7 S    8.550000
   7 S    6.760000
   8 S    6.110000
   8 S    4.900000
   8 S    3.930000
   9 S    3.550000
   9 S    2.880000
   9 S    2.340000
   9 S    1.900000
   2 P   51.900000
   3 P   41.280000
   4 P   32.450000
   5 P   25.520000
   6 P   20.150000
   6 P   13.650000
   7 P   10.840000
   7 P    7.550000
   8 P    6.030000
   8 P    4.290000
   9 P    3.450000
   9 P    2.500000
   3 D   42.450000
   4 D   30.180000
   5 D   21.700000
   6 D   15.790000
   6 D    9.890000
   7 D    7.280000
   7 D    4.710000
   8 D    3.510000
   8 D    2.330000
   4 F   32.800000
   5 F   21.490000
   6 F   14.360000
   6 F    8.280000
   7 F    5.640000
   7 F    3.380000
   5 G   23.300000
   6 G   11.600000
   7 G    6.010000
   7 G    2.760000


 BAS: List of all Elementary Cartesian Basis Functions
 =====================================================

 The numbering in the list below (to the right of the function characteristics) is referred
 to in print-outs of MO eigenvectors and Mulliken populations in the BAS representation
 (as contrasted to the SFO representation).

 Notes:
 1. The functions are characterized by a polynomial prefactor (powers of x,y,z and r) and
    an exponential decay factor alpha.
 2. Since the basis sets are specific for an atom TYPE, the individual functions occur on
    all atoms of that type.
 3. The word 'Core' in the left margin signals that it is a Core Function (CF) : not a
    degree of freedom in the valence set, but only used to ensure orthogonalization of
    the other valence basis functions on the frozen Core Orbitals.


 (power of) X  Y  Z  R     Alpha  on Atom
            ==========     =====     ==========

 Ag                                   1
                                  ---------------------------------------------------------------------------
    Core    0  0  0  0    30.800      1
    Core    0  0  0  1    20.300      2
    Core    0  0  0  2     9.550      3
    Core    1  0  0  0    21.100      4
    Core    0  1  0  0    21.100      5
    Core    0  0  1  0    21.100      6
    Core    1  0  0  1    10.100      7
    Core    0  1  0  1    10.100      8
    Core    0  0  1  1    10.100      9
    Core    2  0  0  0    11.650     10
    Core    1  1  0  0    11.650     11
    Core    1  0  1  0    11.650     12
    Core    0  2  0  0    11.650     13
    Core    0  1  1  0    11.650     14
    Core    0  0  2  0    11.650     15
            0  0  0  3     6.350     16
            0  0  0  3     4.050     17
            0  0  0  4     2.600     18
            0  0  0  4     1.550     19
            0  0  0  4     0.950     20
            1  0  0  2     6.150     21
            0  1  0  2     6.150     22
            0  0  1  2     6.150     23
            1  0  0  2     4.150     24
            0  1  0  2     4.150     25
            0  0  1  2     4.150     26
            1  0  0  2     2.900     27
            0  1  0  2     2.900     28
            0  0  1  2     2.900     29
            2  0  0  1     4.750     30
            1  1  0  1     4.750     31
            1  0  1  1     4.750     32
            0  2  0  1     4.750     33
            0  1  1  1     4.750     34
            0  0  2  1     4.750     35
            2  0  0  1     2.600     36
            1  1  0  1     2.600     37
            1  0  1  1     2.600     38
            0  2  0  1     2.600     39
            0  1  1  1     2.600     40
            0  0  2  1     2.600     41
            2  0  0  1     1.380     42
            1  1  0  1     1.380     43
            1  0  1  1     1.380     44
            0  2  0  1     1.380     45
            0  1  1  1     1.380     46
            0  0  2  1     1.380     47
            1  0  0  3     1.550     48
            0  1  0  3     1.550     49
            0  0  1  3     1.550     50

 Total number of charge fitting functions (nprimf)       230
 Total number of Cartesian basis functions (naos)         50
 Total number of Cartesian core functions  (ncos)         15



 BAS: List of all Elementary Cartesian Basis Functions
 =====================================================

 The numbering in the list below (to the right of the function characteristics) is referred
 to in print-outs of MO eigenvectors and Mulliken populations in the BAS representation
 (as contrasted to the SFO representation).

 Notes:
 1. The functions are characterized by a polynomial prefactor (powers of x,y,z and r) and
    an exponential decay factor alpha.
 2. Since the basis sets are specific for an atom TYPE, the individual functions occur on
    all atoms of that type.
 3. The word 'Core' in the left margin signals that it is a Core Function (CF) : not a
    degree of freedom in the valence set, but only used to ensure orthogonalization of
    the other valence basis functions on the frozen Core Orbitals.


 (power of) X  Y  Z  R     Alpha  on Atom
            ==========     =====     ==========

 Ag                                   1
                                  ---------------------------------------------------------------------------
    Core    0  0  0  0    30.800      1
    Core    0  0  0  1    20.300      2
    Core    0  0  0  2     9.550      3
    Core    1  0  0  0    21.100      4
    Core    0  1  0  0    21.100      5
    Core    0  0  1  0    21.100      6
    Core    1  0  0  1    10.100      7
    Core    0  1  0  1    10.100      8
    Core    0  0  1  1    10.100      9
    Core    2  0  0  0    11.650     10
    Core    1  1  0  0    11.650     11
    Core    1  0  1  0    11.650     12
    Core    0  2  0  0    11.650     13
    Core    0  1  1  0    11.650     14
    Core    0  0  2  0    11.650     15
            0  0  0  3     6.350     16
            0  0  0  3     4.050     17
            0  0  0  4     2.600     18
            0  0  0  4     1.550     19
            0  0  0  4     0.950     20
            1  0  0  2     6.150     21
            0  1  0  2     6.150     22
            0  0  1  2     6.150     23
            1  0  0  2     4.150     24
            0  1  0  2     4.150     25
            0  0  1  2     4.150     26
            1  0  0  2     2.900     27
            0  1  0  2     2.900     28
            0  0  1  2     2.900     29
            2  0  0  1     4.750     30
            1  1  0  1     4.750     31
            1  0  1  1     4.750     32
            0  2  0  1     4.750     33
            0  1  1  1     4.750     34
            0  0  2  1     4.750     35
            2  0  0  1     2.600     36
            1  1  0  1     2.600     37
            1  0  1  1     2.600     38
            0  2  0  1     2.600     39
            0  1  1  1     2.600     40
            0  0  2  1     2.600     41
            2  0  0  1     1.380     42
            1  1  0  1     1.380     43
            1  0  1  1     1.380     44
            0  2  0  1     1.380     45
            0  1  1  1     1.380     46
            0  0  2  1     1.380     47
            1  0  0  3     1.550     48
            0  1  0  3     1.550     49
            0  0  1  3     1.550     50
1
 ***************************************************************************************************



                                              ***********************
                                              *  T E C H N I C A L  *
                                              ***********************
  



 =============================================================
 P A R A L L E L I Z A T I O N  and  V E C T O R I Z A T I O N
 =============================================================
  
 Nr of parallel processes:                                1
 Maximum vector length in NumInt loops:                 128



 ===============
 I O  vs.  C P U  ***  (store numerical data on disk or recalculate)  ***
 ===============
  
 Basis functions:   recalculate when needed
 Fit functions:     recalculate when needed

 IO buffersize (Mb):                                    256.000000



 =====================
 S C F   U P D A T E S
 =====================
  
 Max. nr. of cycles:                               100
 Convergence criterion:                              0.0000000100
   secondary criterion:                              0.0000000100

 Mix parameter (when DIIS does not apply):           0.2000000000
 Special mix parameter for the first cycle:          1.0000000000


 DIIS (Direct Inversion in Iteration Space)
    Replace damping when SCF Error is below:         0.5000000000
    Apply anyway after SCF cycle:
                                                     5
    (Max.) nr. of expansion vectors:                10

    Upperbound on expansion coefficients:            5.0000000000
    (when exceeded, IterationSpace is re-built)
    2nd Upperbound on coefficients:                 25.0000000000
    (when exceeded, simple damping will be used)
 Automatic ElectronSmearing (in case of problematic SCF convergence) disabled



 =================
 P R E C I S I O N  ***  (General: NumInt, NeglectFunctionTails, ...)  ***
 =================
  

 NumInt:           Target precision:                10.0000000000
 -------           Initial precision:               10.0000000000
                   Min. precision (optimization):   10.0000000000

 Neglect Functions:          Basis functions:        0.1000000000E-11
 ------------------          Fit functions:          0.1000000000E-11



 ===========================
 L I N E A R   S C A L I N G
 ===========================
  

 Cut-off radii density fit:                        0.1000000000E-13
 Overlap cut-off criterion AO matrix elements:     0.1000000000E-11
 Cut-offs for Coulomb potential and fitted density:0.1000000000E-13
 Cut-off criterion for Coulomb multipole terms:    0.1000000000E-13
 Progressive Convergence parameter:                 0.000000000    
1
 ***************************************************************************************************



                                            ***************************
                                            *  C O M P U T A T I O N  *
                                            ***************************
  

 Number of elements of the density matrix on this node (used, total):      1275      1275



 ====================================================
 Numerical Integration : Voronoi Polyhedra (Te Velde)  ***  (parameters, tests)  ***
 ====================================================
  
 General Accuracy Parameter :                         10.00

 Symmetry used in the points section:  ATOM  


 Summary of the Symmetry Unique Points:
 --------------------------------------
    Nr. of used Symmetry Operators                     1

    Points in the Atomic Spheres                      94
    Points in the Atomic Polyhedra                     0
    Points in the Outer Region                         0
    ----------------------------------------------------
    Total                                             94

    Sum of Weights                                114259.875357

 Total nr. of points:         94
 Nr. of blocks:                1
 Block length:                94
 Nr. of dummy points:          0


 Test of Precision of the Numerical Integration Grid
 ===================================================

 Integral of the Total Core Density:                  27.99999992831499
 Relative Error:                                      -2.560E-09



 =====
 S C F
 =====
  

 CYCLE    1
 orbitals (Q,E):
 ---------------
 S :1...5            ( 2.00    -3.4932)  ( 1.00    -0.1678)  ( 0.00     0.0495)  ( 0.00     0.5481)
                     ( 0.00     4.1890)
 P :1...4            ( 6.00    -2.1702)  ( 0.00     0.0010)  ( 0.00     0.9464)  ( 0.00     6.3133)
 D :1...3            (10.00    -0.2809)  ( 0.00     0.2936)  ( 0.00     2.2251)

 CYCLE    2
 d-Pmat  mean:  0.22E-02
 imax=     33: -0.66E-02
 orbitals (Q,E):
 ---------------
 S :1...3            ( 2.00    -3.4789)  ( 1.00    -0.1655)  ( 0.00     0.0499)
 P :1...2            ( 6.00    -2.1568)  ( 0.00     0.0025)
 D :1...2            (10.00    -0.2711)  ( 0.00     0.2958)

 CYCLE    3
 d-Pmat  mean:  0.14E-02
 imax=     35:  0.43E-02
 orbitals (Q,E):
 ---------------
 S :1...3            ( 2.00    -3.4878)  ( 1.00    -0.1670)  ( 0.00     0.0494)
 P :1...2            ( 6.00    -2.1651)  ( 0.00     0.0014)
 D :1...2            (10.00    -0.2771)  ( 0.00     0.2943)

 CYCLE    4
 d-Pmat  mean:  0.75E-04
 imax=     18:  0.23E-03
 orbitals (Q,E):
 ---------------
 S :1...3            ( 2.00    -3.4884)  ( 1.00    -0.1672)  ( 0.00     0.0493)
 P :1...2            ( 6.00    -2.1657)  ( 0.00     0.0012)
 D :1...2            (10.00    -0.2776)  ( 0.00     0.2941)

 CYCLE    5
 d-Pmat  mean:  0.28E-05
 imax=     18: -0.99E-05
 orbitals (Q,E):
 ---------------
 S :1...3            ( 2.00    -3.4884)  ( 1.00    -0.1672)  ( 0.00     0.0493)
 P :1...2            ( 6.00    -2.1657)  ( 0.00     0.0012)
 D :1...2            (10.00    -0.2775)  ( 0.00     0.2941)

 CYCLE    6
 d-Pmat  mean:  0.17E-07
 imax=     19: -0.13E-06
 orbitals (Q,E):
 ---------------
 S :1...3            ( 2.00    -3.4884)  ( 1.00    -0.1672)  ( 0.00     0.0493)
 P :1...2            ( 6.00    -2.1657)  ( 0.00     0.0012)
 D :1...2            (10.00    -0.2775)  ( 0.00     0.2941)

 CYCLE    7
 d-Pmat  mean:  0.11E-08
 imax=     19: -0.11E-07
 orbitals (Q,E):
 ---------------
 S :1...3            ( 2.00    -3.4884)  ( 1.00    -0.1672)  ( 0.00     0.0493)
 P :1...2            ( 6.00    -2.1657)  ( 0.00     0.0012)
 D :1...2            (10.00    -0.2775)  ( 0.00     0.2941)

 SCF CONVERGED

 CYCLE    8
1
 ***************************************************************************************************



                                                *******************
                                                *  R E S U L T S  *
                                                *******************
  
 *** Setting up for NEW gradients in focky
 *** Using FIT density in focky
 XCFun disabled
 XCFun disabled
 XCFun disabled

 Scaled ZORA Orbital Energies, per Irrep and Spin:
 =================================================
                        Occup              E (au)              E (eV)       Diff (eV) with prev. cycle
                        -----      --------------------        ------       --------------------------
 S
               1        2.000     -0.34883937327255E+01       -94.924               1.01E-09
               2        1.000     -0.16721774376307E+00        -4.550               8.48E-10
               3        0.000      0.49292090859751E-01         1.341
               4        0.000      0.54900113066203E+00        14.939
               5        0.000      0.41923034015691E+01       114.078
 P
               1        6.000     -0.21656535049739E+01       -58.930               1.04E-09
               2        0.000      0.12312059741376E-02         0.034
               3        0.000      0.94805018589873E+00        25.798
               4        0.000      0.63168566721937E+01       171.890
 D
               1       10.000     -0.27753746737237E+00        -7.552               1.07E-09
               2        0.000      0.29412398526233E+00         8.004
               3        0.000      0.22279871540449E+01        60.627


 Partially Occupied:
               2 S                -0.16721774376307E+00
  
 HOMO :        1 D                -0.27753746737237E+00
 LUMO :        2 P                 0.12312059741376E-02
  


 Orbital Energies, all Irreps
 ========================================

 Irrep        no.  (spin)   Occup              E (au)                E (eV)
 ---------------------------------------------------------------------------
 S             1             2.00       -0.34883937327255E+01       -94.9240
 P             1             6.00       -0.21656535049739E+01       -58.9304
 D             1            10.00       -0.27753746737237E+00        -7.5522
 S             2             1.00       -0.16721774376307E+00        -4.5502
 P             2             0.00        0.12312059741376E-02         0.0335
 S             3             0.00        0.49292090859751E-01         1.3413
 D             2             0.00        0.29412398526233E+00         8.0035
 S             4             0.00        0.54900113066203E+00        14.9391
 P             3             0.00        0.94805018589873E+00        25.7978
 D             3             0.00        0.22279871540449E+01        60.6266
 S             5             0.00        0.41923034015691E+01       114.0784
 P             4             0.00        0.63168566721937E+01       171.8904


 Scaled ZORA Orbital Energies of the Core Orbitals:
 ==================================================

 (Note that the atoms are grouped by atomtype, see the labels, and may hence NOT be in input order)

 AtomType  Orbital  Atom                   E (au)                        E (eV)
 --------  -------  ----           --------------------        ----------------
 Ag          1S        1          -0.93051917515589E+03              -25320.715
             2S        1          -0.13700540306455E+03               -3728.107
             3S        1          -0.25114511935225E+02                -683.401
             2P        1          -0.12286153862350E+03               -3343.233
             3P        1          -0.20498924322833E+02                -557.804
             3D        1          -0.13198949396919E+02                -359.162



 =======================================
 M U L L I K E N   P O P U L A T I O N S
 =======================================
  
 The survey below gives for each atom:
 a) the total charge (Z minus electrons)
 b) the net spin polarization (nr of electrons spin-A minus spin-B)
 c) for each spin the atomic electron valence density (integrated) per L-value.

 Atom              Charge    Spin density          S         P         D         F
 ----              ------    ------------       ------    ------    ------    ------
 1 Ag              0.0000                       3.0000    6.0000   10.0000    0.0000

 Populations of individual BAS functions
 ----------------------------------------
 1 Ag          -0.0085  0.0044 -0.0712  0.0003  0.0003  0.0003  0.0270  0.0270  0.0270  0.0387
                0.0580  0.0580  0.0387  0.0580  0.0387  1.3215  0.7613  0.3605  0.5376  0.0943
                0.7450  0.7450  0.7450  1.0681  1.0681  1.0681  0.1587  0.1587  0.1587  0.5515
                0.8273  0.8273  0.5515  0.8273  0.5515  0.6409  0.9614  0.9614  0.6409  0.9614
                0.6409  0.1022  0.1533  0.1533  0.1022  0.1533  0.1022  0.0010  0.0010  0.0010

 Gross Charges per Atom (Z minus electrons)
 ==========================================
             0.0000
 Net Total:  0.00000000


 Atom-Atom Population Matrix (off-diagonal elements not doubled)
 ===============================================================

     1 :    19.0000



 =============
 Dipole Moment  ***  (Debye)  ***
 =============
  
 Vector   :         0.00000000      0.00000000      0.00000000
 Magnitude:         0.00000000

 This molecular dipole moment is calculated with analytic integration



 =========================================
 Quadrupole Moment (Buckingham convention)  ***  (a.u.)  ***
 =========================================
  
      quad-xx        quad-xy        quad-xz        quad-yy        quad-yz        quad-zz
      0.00000000     0.00000000     0.00000000     0.00000000     0.00000000     0.00000000

 This molecular quadrupole moment is calculated with analytic integration



 ===============================================================================
 Electrostatic potential at the Nuclei due to valence electrons and other nuclei
 ===============================================================================
  
         Atom                  Potential
         ----                  ---------
     1)   Ag                 21.10983739
 
 
 ========================
 No memory problems found
 ========================
 
 Maximum number of active allocate calls:         391
 
 *******************************************************************************

                             A D F   E X I T
 NORMAL TERMINATION



 =================
 Timing Statistics
 =================
  
 Total Used :                     CPU=        0.24      System=        0.34     Elapsed=        1.30

 Calls  Section                     ( Mean, Percentage )
 ---------------------------------------------------------------------------------------------------
     3  ><      ................      0.00    0.00             0.00    0.00             0.00    0.47
     1  INIT    ................      0.01    4.17             0.03    8.82             0.57   44.12
     1  GEOMET  ................      0.00    0.00             0.20   58.82             0.22   16.74
     1  INPUTA  ................      0.00    0.00             0.01    2.94             0.01    0.68
     1  MAINSY  ................      0.01    4.17             0.01    2.94             0.03    2.12
     1  SYMFIT  ................      0.00    0.00             0.00    0.00             0.00    0.04
     1  CORORT  ................      0.00    0.00             0.00    0.00             0.00    0.12
     1  SYMORB  ................      0.01    4.17             0.00    0.00             0.00    0.07
     1  FITINT  ................      0.00    0.00             0.00    0.00             0.01    0.54
     1  CLSMAT  ................      0.00    0.00             0.00    0.00             0.00    0.04
     1  ORTHON  ................      0.00    0.00             0.00    0.00             0.00    0.15
     1  ETALOW  ................      0.01    4.17             0.00    0.00             0.00    0.06
     1  GENPT   ................      0.01    4.17             0.00    0.00             0.02    1.29
     1  PTBAS   ................      0.00    0.00             0.01    2.94             0.00    0.32
     8  FOCKY   ................      0.01   50.00             0.01   20.59             0.04   25.72
     8  FOCKTR  ................      0.00    0.00             0.00    2.94             0.00    0.20
     8  FOCKNM  ................      0.00    0.00             0.00    0.00             0.00    0.02
     8  SDIIS   ................      0.00    8.33             0.00    0.00             0.00    0.25
     8  EMERGE  ................      0.00    4.17             0.00    0.00             0.00    1.89
     1  COREPS  ................      0.02    8.33             0.00    0.00             0.02    1.91
     1  POPAN   ................      0.00    0.00             0.00    0.00             0.01    0.87
     1  DEBYE   ................      0.00    0.00             0.00    0.00             0.00    0.07
     1  QMPOT   ................      0.00    0.00             0.00    0.00             0.01    0.76
     1  EXIT PROCEDURE .........      0.02    8.33             0.00    0.00             0.02    1.55


 Currently Open Files (EXIT00)
 ====================

 Unit    Access Format  Status   Type       Ident (file)
 -------------------------------------------------------
   3      SEQ    FORM   TRANSP  NORMAL      LOGFILE
                                          ( logfile )


 Buffered I/O statistics
 =======================
 Memory available:                    268435456
 Number of records fitting in memory:     64527
 Input :   1.3% of                         3830  *4k bytes
 Output:  10.3% of                         1959  *4k bytes
 Records from serial files evicted:           0
                    others evicted:           0
 Hash table lookups:      15695 with          0 conflicts (  0.00%)

 ***************************************************************************************************
 (LOGFILE)
 <Sep01-2015> <10:40:22>  DIRAC 2012.01  RunTime: Sep01-2015 10:40:22  Nodes: 1  Procs: 1
 <Sep01-2015> <10:40:22>  NORMAL TERMINATION
 <Sep01-2015> <10:40:23>  END
 <Sep01-2015> <10:40:25>  ADF 2012.01  RunTime: Sep01-2015 10:40:25  Nodes: 1  Procs: 1
 <Sep01-2015> <10:40:25>  Silver (TZP, 3d frozen)
 <Sep01-2015> <10:40:26>  RunType   : CREATE
 <Sep01-2015> <10:40:26>  Net Charge: 0 (Nuclei minus Electrons)
 <Sep01-2015> <10:40:26>  Symmetry  : ATOM
 <Sep01-2015> <10:40:26>  >>>> CORORT
 <Sep01-2015> <10:40:26>  >>>> FITINT
 <Sep01-2015> <10:40:26>  >>>> CLSMAT
 <Sep01-2015> <10:40:26>  >>>> ORTHON
 <Sep01-2015> <10:40:26>  >>>> GENPT
 <Sep01-2015> <10:40:26>  Acc.Num.Int.=  10.000
 <Sep01-2015> <10:40:26>  Block Length=  94
 <Sep01-2015> <10:40:26>  >>>> PTBAS
 <Sep01-2015> <10:40:26>  >>>> CYCLE
 <Sep01-2015> <10:40:26>    1
 <Sep01-2015> <10:40:26>    2  ErrMat   0.02728591  MaxEl  0.00887264
 <Sep01-2015> <10:40:26>    3  ErrMat   0.05713964  MaxEl -0.01729688
 <Sep01-2015> <10:40:26>    4  ErrMat   0.00229105  MaxEl -0.00078765
 <Sep01-2015> <10:40:26>    5  ErrMat   0.00007667  MaxEl  0.00002781
 <Sep01-2015> <10:40:26>    6  ErrMat   0.00000030  MaxEl -0.00000012
 <Sep01-2015> <10:40:26>    7  ErrMat   0.00000001  MaxEl  0.00000000
 <Sep01-2015> <10:40:26>  SCF converged
 <Sep01-2015> <10:40:26>    8  ErrMat   0.00000000  MaxEl  0.00000000
 <Sep01-2015> <10:40:26>   Solutions with partially occupied orbitals may not be
 <Sep01-2015> <10:40:26>   lowest in energy. You might consider lowering the
 <Sep01-2015> <10:40:26>   symmetry in the input and explicitly specifying integer
 <Sep01-2015> <10:40:26>   occupations. In that case always check that you obtain
 <Sep01-2015> <10:40:26>   an aufbau solution.
 <Sep01-2015> <10:40:26>  >>>> POPAN
 <Sep01-2015> <10:40:26>  >>>> DEBYE
 <Sep01-2015> <10:40:26>  NORMAL TERMINATION
 <Sep01-2015> <10:40:26>  END
Platform-MPI licensed for SCM.


 Parallel Execution: Process Information
 ==============================================================================
 Rank   Node Name                              NodeID   MyNodeRank  NodeMaster
    0   mage05.beocat                             0          0          0
    1   mage05.beocat                             0          1         -1
 ==============================================================================


(INPUT FILE)
title Au20 cluster optimization with 4f frozen core - td structure

RELATIVISTIC SCALAR ZORA SAPA

SCF
Converge 1e-8
Iterations 300
END

Solvation
Solv Name =Methanol
END

INTEGRATION 6.0

::Unrestricted
CHARGE +2

XC
GGA Becke Perdew
END

GEOMETRY
::TS
converge E=1e-4 grad=1e-3
smooth aggressive
iterations 100
::frequencies
END

Atoms
Ag         0.00000000     0.00000000    -0.19049400
Ag         0.00000000     0.00000000    -2.74792910
END

Fragments
Ag t21.Ag
End
end input

 *******************************************************************************
 *                                                                             *
 *  -------------------------------------                                      *
 *   Amsterdam Density Functional  (ADF)         2012.01   January 26, 2012    *
 *  -------------------------------------                                      *
 *                                               Build 201201262307            *
 *                                                                             *
 *                                                                             *
 *                              =================                              *
 *                              |               |                              *
 *                              |     A D F     |                              *
 *                              |               |                              *
 *                              =================                              *
 *                                                                             *
 *                                                                             *
 *   Online information and documentation:  http://www.scm.com                 *
 *   E-mail:  support@scm.com   info@scm.com                                   *
 *                                                                             *
 *   Scientific publications using ADF results must be properly referenced     *
 *   See the User Manuals (or the web site) for recommended citations          *
 *   The terms and conditions of the End User License Agreement apply to       *
 *   the use of ADF, http://www.scm.com/Sales/LicAgreement.html                *
 *                                                                             *
 **********************  pentium64_linux / platform_mpi  ***********************
 
 ADF 2012.01  RunTime: Sep01-2015 10:40:35  Nodes: 1  Procs: 2

 Temporary files are created in /tmp/2101450.1.batch.q/kid_0.UWeeIV


Communication costs MPI_COMM_WORLD:    0.738 usec per message,   0.0171 usec per 8-byte item
Communication costs for intra-node:   -0.801 usec per message,   0.0241 usec per 8-byte item

 Au20 cluster optimization with 4f frozen core - td structure



 ===========================
 A T T A C H E D   F I L E S
 ===========================
  



 ===============================
 M O D E L   P A R A M E T E R S
 ===============================
  
 DENSITY FUNCTIONAL POTENTIAL (scf)
    LDA:                               VWN                                      
    Gradient Corrections:              Becke88 Perdew86                        == Not Default ==

 SPIN  (restricted / unrestr.)
    Molecule:                          Restricted                               
    Fragments:                         Restricted                               

 OTHER ASPECTS
    Relativistic Corrections:          scalar (ZORA,SAPA)                       *** SPECIAL ***

    Nuclear Charge Density Model:      Point Charge Nuclei                                                                                                                                                                                     
    Core Treatment:                    Frozen Orbital(s)                        

    Electric Field:                    ---                                      

    Hyperfine or Zeeman Interaction:   ---                                      

 SOLVATION
-------------------------------------------

  The Solvent-Excluding surface is calculated

       Division Level for Surface Triangles (NDIV)                  3
       Final Division Level for Triangles (NFDIV)                   1
       Radius of the Solvent (RSOL)                           2.53000 angstr
       Minimum Radius for new sphere (RMINSOLV)               0.50000 angstr
       Overlapping Factor (OFAC)                              0.80000
       New spheres will be assigned to the initials using ASSG1

  Dielectric Constant (EPSL)                                 32.60000

       COSMO equation is solved iteratively-               conjugate-gradient

       Maximun of Iterations for Charges (NCIX)                  1000
       Criterion for Charge convergence (CCNV)                1.0E-10

  COSMO charges included variationally in SCF

       COSMO included at every SCF cycle

  Geometry-dependent empirical factor                         0.00000

  C-Matrix calculated in cspmtx

  In cspmtx, C-Matrix calculated using fitted potential

-------------------------------------------



 Fragment File(s)
 ----------------
 Ag:
         file : t21.Ag
         jobid: ADF 2012.01  RunTime: Sep01-2015 10:40:25  Nodes: 1  Procs: 1
         title: Silver (TZP, 3d frozen)



                                   *********************************************
                                   *  R U N   T Y P E : GEOMETRY OPTIMIZATION  *
                                   *********************************************
  



 ===============
 G E O M E T R Y  ***  Linear Molecule  ***
 ===============
  

 ATOMS
 =====                            X Y Z                    CHARGE                     RADIUS
                                (Angstrom)             Nucl     +Core       At.Mass (Angstrom)
                       --------------------------    ----------------       ------- ----------
    1  Ag              0.0000    0.0000    1.2787     47.00     19.00      106.9051    2.0250
    2  Ag              0.0000    0.0000   -1.2787     47.00     19.00      106.9051    2.0250


 FRAGMENTS
 =========                                     Atoms in this Fragment     Cart. coord.s (Angstrom)
                                               -------------------------------------------------------
    1  Ag                                                1  Ag           0.0000    0.0000    1.2787
    2  Ag                                                2  Ag           0.0000    0.0000   -1.2787


 Interatomic Distance Matrix (Angstrom)
 --------------------------------------

   1)     0.000
   2)     2.557   0.000



 =====================================
 S Y M M E T R Y ,   E L E C T R O N S
 =====================================
  
 Symmetry: D(LIN)

 Irreducible Representations, including subspecies
 -------------------------------------------------
 SIGMA.g
 SIGMA.u
 PI.g:x  PI.g:y
 PI.u:x  PI.u:y
 DELTA.g:x2-y2  DELTA.g:xy
 DELTA.u:x2-y2  DELTA.u:xy
 PHI.g:x3-3xy2  PHI.g:3x2y-y3
 PHI.u:x3-3xy2  PHI.u:3x2y-y3


 Configuration of Valence Electrons
 ==================================
 ( determined in the SCF procedure )

 Total:   36

 Net Charge: 2 (Nuclei minus Electrons)

 Aufbau principle for MO occupations will be applied through SCF cycle no.      30
 Thereafter, the program will assign electrons to MOs that are spatially
 similar to the occupied MOs in a "reference" cycle ("KeepOrbitals").
 The reference cycle is always the PREVIOUS cycle: it will evolve with
 the SCF procedure.
1
 ***************************************************************************************************



                                      ****************************************
                                      *  B U I L D : (Fragments, Functions)  *
                                      ****************************************
  



 =======
 S F O s  ***  (Symmetrized Fragment Orbitals)  ***
 =======
  
 SFOs are linear combinations of (valence) Fragment Orbitals (FOs), such that the SFOs transform as the
 irreducible representations of the (molecular) symmetry group. Each SFO is therefore characterized by
 an irrep of the molecule and by a few (or only one) generating FOs.
 The SFOs constitute a symmetry-adapted basis for the Fock matrix. The MO eigenvector coefficients in
 this basis provide a direct interpretation of the MOs in terms of Frontier Orbital Theory.

 The SFOs are combined with auxiliary Core Functions (CFs) to ensure orthogonalization on the (frozen)
 Core Orbitals (COs). The Core-orthogonalized SFOs (CSFOs) constitute the true Fock basis.

 The FOs, and hence also the (C)SFOs are combinations of the elementary basis functions (BAS). The basis
 functions that participate in the description of the SFOs depend on the irrep. The indices of the
 involved functions are printed below for each irrep.
 (The complete list of primitive basis functions is printed in another section)

 Total nr. of (C)SFOs (summation over all irreps) :    64

 NOTE: a (C)SFO that is defined as a combination of more than one FO is usually NOT normalized.



                                       === SIGMA.g ===
 Nr. of SFOs :   12
 Cartesian basis functions that participate in this irrep (total number =    52) :
      1    51     2    52     3    53     6    56     9    59
     15    65    10    13    60    63    16    66    17    67
     18    68    19    69    20    70    23    73    26    76
     29    79    50   100    35    85    41    91    47    97
     30    33    80    83    36    39    86    89    42    45
     92    95

    SFO  (index         Fragment          Generating    Expansion in Fragment Orbitals
  indx  incl.CFs)   Occup   Orb.Energy   FragmentType  Coeff.   Orbital     on Fragment
 --------------------------------------------------------------------------------------
     1      17      2.000      -3.490 au  Ag            0.71      1 S               1
                        (     -94.963 eV)               0.71      1 S               2
     2      18      1.000      -0.167 au  Ag            0.71      2 S               1
                        (      -4.550 eV)               0.71      2 S               2
     3      19       --         0.049 au  Ag            0.71      3 S               1
                        (       1.341 eV)               0.71      3 S               2
     4      20       --         0.549 au  Ag            0.71      4 S               1
                        (      14.940 eV)               0.71      4 S               2
     5      21       --         4.196 au  Ag            0.71      5 S               1
                        (     114.167 eV)               0.71      5 S               2
     6      22      2.000      -2.166 au  Ag            0.71      1 P:z             1
                        (     -58.952 eV)              -0.71      1 P:z             2
     7      23       --         0.001 au  Ag            0.71      2 P:z             1
                        (       0.034 eV)              -0.71      2 P:z             2
     8      24       --         0.948 au  Ag            0.71      3 P:z             1
                        (      25.801 eV)              -0.71      3 P:z             2
     9      25       --         6.323 au  Ag            0.71      4 P:z             1
                        (     172.071 eV)              -0.71      4 P:z             2
    10      26      2.000      -0.278 au  Ag            0.71      1 D:z2            1
                        (      -7.554 eV)               0.71      1 D:z2            2
    11      27       --         0.294 au  Ag            0.71      2 D:z2            1
                        (       8.004 eV)               0.71      2 D:z2            2
    12      28       --         2.229 au  Ag            0.71      3 D:z2            1
                        (      60.651 eV)               0.71      3 D:z2            2



                                       === SIGMA.u ===
 Nr. of SFOs :   12
 Cartesian basis functions that participate in this irrep (total number =    52) :
      1    51     2    52     3    53     6    56     9    59
     15    65    10    13    60    63    16    66    17    67
     18    68    19    69    20    70    23    73    26    76
     29    79    50   100    35    85    41    91    47    97
     30    33    80    83    36    39    86    89    42    45
     92    95

    SFO  (index         Fragment          Generating    Expansion in Fragment Orbitals
  indx  incl.CFs)   Occup   Orb.Energy   FragmentType  Coeff.   Orbital     on Fragment
 --------------------------------------------------------------------------------------
     1      17      2.000      -3.490 au  Ag            0.71      1 S               1
                        (     -94.963 eV)              -0.71      1 S               2
     2      18      1.000      -0.167 au  Ag            0.71      2 S               1
                        (      -4.550 eV)              -0.71      2 S               2
     3      19       --         0.049 au  Ag            0.71      3 S               1
                        (       1.341 eV)              -0.71      3 S               2
     4      20       --         0.549 au  Ag            0.71      4 S               1
                        (      14.940 eV)              -0.71      4 S               2
     5      21       --         4.196 au  Ag            0.71      5 S               1
                        (     114.167 eV)              -0.71      5 S               2
     6      22      2.000      -2.166 au  Ag            0.71      1 P:z             1
                        (     -58.952 eV)               0.71      1 P:z             2
     7      23       --         0.001 au  Ag            0.71      2 P:z             1
                        (       0.034 eV)               0.71      2 P:z             2
     8      24       --         0.948 au  Ag            0.71      3 P:z             1
                        (      25.801 eV)               0.71      3 P:z             2
     9      25       --         6.323 au  Ag            0.71      4 P:z             1
                        (     172.071 eV)               0.71      4 P:z             2
    10      26      2.000      -0.278 au  Ag            0.71      1 D:z2            1
                        (      -7.554 eV)              -0.71      1 D:z2            2
    11      27       --         0.294 au  Ag            0.71      2 D:z2            1
                        (       8.004 eV)              -0.71      2 D:z2            2
    12      28       --         2.229 au  Ag            0.71      3 D:z2            1
                        (      60.651 eV)              -0.71      3 D:z2            2



                                       === PI.g:x ===
 Nr. of SFOs :    7
 Cartesian basis functions that participate in this irrep (total number =    20) :
      4    54     7    57    12    62    21    71    24    74
     27    77    48    98    32    82    38    88    44    94

    SFO  (index         Fragment          Generating    Expansion in Fragment Orbitals
  indx  incl.CFs)   Occup   Orb.Energy   FragmentType  Coeff.   Orbital     on Fragment
 --------------------------------------------------------------------------------------
     1       7      2.000      -2.166 au  Ag            0.71      1 P:x             1
                        (     -58.952 eV)              -0.71      1 P:x             2
     2       8       --         0.001 au  Ag            0.71      2 P:x             1
                        (       0.034 eV)              -0.71      2 P:x             2
     3       9       --         0.948 au  Ag            0.71      3 P:x             1
                        (      25.801 eV)              -0.71      3 P:x             2
     4      10       --         6.323 au  Ag            0.71      4 P:x             1
                        (     172.071 eV)              -0.71      4 P:x             2
     5      11      2.000      -0.278 au  Ag            0.71      1 D:xz            1
                        (      -7.554 eV)               0.71      1 D:xz            2
     6      12       --         0.294 au  Ag            0.71      2 D:xz            1
                        (       8.004 eV)               0.71      2 D:xz            2
     7      13       --         2.229 au  Ag            0.71      3 D:xz            1
                        (      60.651 eV)               0.71      3 D:xz            2



                                       === PI.g:y ===
 Nr. of SFOs :    7
 Cartesian basis functions that participate in this irrep (total number =    20) :
      5    55     8    58    14    64    22    72    25    75
     28    78    49    99    34    84    40    90    46    96

    SFO  (index         Fragment          Generating    Expansion in Fragment Orbitals
  indx  incl.CFs)   Occup   Orb.Energy   FragmentType  Coeff.   Orbital     on Fragment
 --------------------------------------------------------------------------------------
     1       7      2.000      -2.166 au  Ag            0.71      1 P:y             1
                        (     -58.952 eV)              -0.71      1 P:y             2
     2       8       --         0.001 au  Ag            0.71      2 P:y             1
                        (       0.034 eV)              -0.71      2 P:y             2
     3       9       --         0.948 au  Ag            0.71      3 P:y             1
                        (      25.801 eV)              -0.71      3 P:y             2
     4      10       --         6.323 au  Ag            0.71      4 P:y             1
                        (     172.071 eV)              -0.71      4 P:y             2
     5      11      2.000      -0.278 au  Ag            0.71      1 D:yz            1
                        (      -7.554 eV)               0.71      1 D:yz            2
     6      12       --         0.294 au  Ag            0.71      2 D:yz            1
                        (       8.004 eV)               0.71      2 D:yz            2
     7      13       --         2.229 au  Ag            0.71      3 D:yz            1
                        (      60.651 eV)               0.71      3 D:yz            2



                                       === PI.u:x ===
 Nr. of SFOs :    7
 Cartesian basis functions that participate in this irrep (total number =    20) :
      4    54     7    57    12    62    21    71    24    74
     27    77    48    98    32    82    38    88    44    94

    SFO  (index         Fragment          Generating    Expansion in Fragment Orbitals
  indx  incl.CFs)   Occup   Orb.Energy   FragmentType  Coeff.   Orbital     on Fragment
 --------------------------------------------------------------------------------------
     1       7      2.000      -2.166 au  Ag            0.71      1 P:x             1
                        (     -58.952 eV)               0.71      1 P:x             2
     2       8       --         0.001 au  Ag            0.71      2 P:x             1
                        (       0.034 eV)               0.71      2 P:x             2
     3       9       --         0.948 au  Ag            0.71      3 P:x             1
                        (      25.801 eV)               0.71      3 P:x             2
     4      10       --         6.323 au  Ag            0.71      4 P:x             1
                        (     172.071 eV)               0.71      4 P:x             2
     5      11      2.000      -0.278 au  Ag            0.71      1 D:xz            1
                        (      -7.554 eV)              -0.71      1 D:xz            2
     6      12       --         0.294 au  Ag            0.71      2 D:xz            1
                        (       8.004 eV)              -0.71      2 D:xz            2
     7      13       --         2.229 au  Ag            0.71      3 D:xz            1
                        (      60.651 eV)              -0.71      3 D:xz            2



                                       === PI.u:y ===
 Nr. of SFOs :    7
 Cartesian basis functions that participate in this irrep (total number =    20) :
      5    55     8    58    14    64    22    72    25    75
     28    78    49    99    34    84    40    90    46    96

    SFO  (index         Fragment          Generating    Expansion in Fragment Orbitals
  indx  incl.CFs)   Occup   Orb.Energy   FragmentType  Coeff.   Orbital     on Fragment
 --------------------------------------------------------------------------------------
     1       7      2.000      -2.166 au  Ag            0.71      1 P:y             1
                        (     -58.952 eV)               0.71      1 P:y             2
     2       8       --         0.001 au  Ag            0.71      2 P:y             1
                        (       0.034 eV)               0.71      2 P:y             2
     3       9       --         0.948 au  Ag            0.71      3 P:y             1
                        (      25.801 eV)               0.71      3 P:y             2
     4      10       --         6.323 au  Ag            0.71      4 P:y             1
                        (     172.071 eV)               0.71      4 P:y             2
     5      11      2.000      -0.278 au  Ag            0.71      1 D:yz            1
                        (      -7.554 eV)              -0.71      1 D:yz            2
     6      12       --         0.294 au  Ag            0.71      2 D:yz            1
                        (       8.004 eV)              -0.71      2 D:yz            2
     7      13       --         2.229 au  Ag            0.71      3 D:yz            1
                        (      60.651 eV)              -0.71      3 D:yz            2



                                       === DELTA.g:x2-y2 ===
 Nr. of SFOs :    3
 Cartesian basis functions that participate in this irrep (total number =    16) :
     10    13    60    63    30    33    80    83    36    39
     86    89    42    45    92    95

    SFO  (index         Fragment          Generating    Expansion in Fragment Orbitals
  indx  incl.CFs)   Occup   Orb.Energy   FragmentType  Coeff.   Orbital     on Fragment
 --------------------------------------------------------------------------------------
     1       5      2.000      -0.278 au  Ag            0.71      1 D:x2-y2         1
                        (      -7.554 eV)               0.71      1 D:x2-y2         2
     2       6       --         0.294 au  Ag            0.71      2 D:x2-y2         1
                        (       8.004 eV)               0.71      2 D:x2-y2         2
     3       7       --         2.229 au  Ag            0.71      3 D:x2-y2         1
                        (      60.651 eV)               0.71      3 D:x2-y2         2



                                       === DELTA.g:xy ===
 Nr. of SFOs :    3
 Cartesian basis functions that participate in this irrep (total number =     8) :
     11    61    31    81    37    87    43    93

    SFO  (index         Fragment          Generating    Expansion in Fragment Orbitals
  indx  incl.CFs)   Occup   Orb.Energy   FragmentType  Coeff.   Orbital     on Fragment
 --------------------------------------------------------------------------------------
     1       3      2.000      -0.278 au  Ag            0.71      1 D:xy            1
                        (      -7.554 eV)               0.71      1 D:xy            2
     2       4       --         0.294 au  Ag            0.71      2 D:xy            1
                        (       8.004 eV)               0.71      2 D:xy            2
     3       5       --         2.229 au  Ag            0.71      3 D:xy            1
                        (      60.651 eV)               0.71      3 D:xy            2



                                       === DELTA.u:x2-y2 ===
 Nr. of SFOs :    3
 Cartesian basis functions that participate in this irrep (total number =    16) :
     10    13    60    63    30    33    80    83    36    39
     86    89    42    45    92    95

    SFO  (index         Fragment          Generating    Expansion in Fragment Orbitals
  indx  incl.CFs)   Occup   Orb.Energy   FragmentType  Coeff.   Orbital     on Fragment
 --------------------------------------------------------------------------------------
     1       5      2.000      -0.278 au  Ag            0.71      1 D:x2-y2         1
                        (      -7.554 eV)              -0.71      1 D:x2-y2         2
     2       6       --         0.294 au  Ag            0.71      2 D:x2-y2         1
                        (       8.004 eV)              -0.71      2 D:x2-y2         2
     3       7       --         2.229 au  Ag            0.71      3 D:x2-y2         1
                        (      60.651 eV)              -0.71      3 D:x2-y2         2



                                       === DELTA.u:xy ===
 Nr. of SFOs :    3
 Cartesian basis functions that participate in this irrep (total number =     8) :
     11    61    31    81    37    87    43    93

    SFO  (index         Fragment          Generating    Expansion in Fragment Orbitals
  indx  incl.CFs)   Occup   Orb.Energy   FragmentType  Coeff.   Orbital     on Fragment
 --------------------------------------------------------------------------------------
     1       3      2.000      -0.278 au  Ag            0.71      1 D:xy            1
                        (      -7.554 eV)              -0.71      1 D:xy            2
     2       4       --         0.294 au  Ag            0.71      2 D:xy            1
                        (       8.004 eV)              -0.71      2 D:xy            2
     3       5       --         2.229 au  Ag            0.71      3 D:xy            1
                        (      60.651 eV)              -0.71      3 D:xy            2



 ================================
 (Slater-type)  F U N C T I O N S  ***  (Basis and Fit)  ***
 ================================
  

 Atom Type    1  (Ag)
 ==============

 Valence Basis Sets:  18
 -----------------------
   1 S   30.800000
   2 S   20.300000
   3 S    9.550000
   2 P   21.100000
   3 P   10.100000
   3 D   11.650000
   4 S    6.350000
   4 S    4.050000
   5 S    2.600000
   5 S    1.550000
   5 S    0.950000
   4 P    6.150000
   4 P    4.150000
   4 P    2.900000
   4 D    4.750000
   4 D    2.600000
   4 D    1.380000
   5 P    1.550000

 Frozen Core Shells
 ------------------
    S:  3
    P:  2
    D:  1

 Charge Fitting Sets (for the computation of the Coulomb Potential):  51
 -----------------------------------------------------------------------
   1 S   61.600000
   1 S   36.350000
   2 S   39.760000
   3 S   38.850000
   3 S   27.540000
   4 S   25.820000
   4 S   19.060000
   5 S   17.540000
   5 S   13.330000
   6 S   12.140000
   6 S    9.440000
   7 S    8.550000
   7 S    6.760000
   8 S    6.110000
   8 S    4.900000
   8 S    3.930000
   9 S    3.550000
   9 S    2.880000
   9 S    2.340000
   9 S    1.900000
   2 P   51.900000
   3 P   41.280000
   4 P   32.450000
   5 P   25.520000
   6 P   20.150000
   6 P   13.650000
   7 P   10.840000
   7 P    7.550000
   8 P    6.030000
   8 P    4.290000
   9 P    3.450000
   9 P    2.500000
   3 D   42.450000
   4 D   30.180000
   5 D   21.700000
   6 D   15.790000
   6 D    9.890000
   7 D    7.280000
   7 D    4.710000
   8 D    3.510000
   8 D    2.330000
   4 F   32.800000
   5 F   21.490000
   6 F   14.360000
   6 F    8.280000
   7 F    5.640000
   7 F    3.380000
   5 G   23.300000
   6 G   11.600000
   7 G    6.010000
   7 G    2.760000


 BAS: List of all Elementary Cartesian Basis Functions
 =====================================================

 The numbering in the list below (to the right of the function characteristics) is referred
 to in print-outs of MO eigenvectors and Mulliken populations in the BAS representation
 (as contrasted to the SFO representation).

 Notes:
 1. The functions are characterized by a polynomial prefactor (powers of x,y,z and r) and
    an exponential decay factor alpha.
 2. Since the basis sets are specific for an atom TYPE, the individual functions occur on
    all atoms of that type.
 3. The word 'Core' in the left margin signals that it is a Core Function (CF) : not a
    degree of freedom in the valence set, but only used to ensure orthogonalization of
    the other valence basis functions on the frozen Core Orbitals.


 (power of) X  Y  Z  R     Alpha  on Atom
            ==========     =====     ==========

 Ag                                   1    2
                                  ---------------------------------------------------------------------------
    Core    0  0  0  0    30.800      1   51
    Core    0  0  0  1    20.300      2   52
    Core    0  0  0  2     9.550      3   53
    Core    1  0  0  0    21.100      4   54
    Core    0  1  0  0    21.100      5   55
    Core    0  0  1  0    21.100      6   56
    Core    1  0  0  1    10.100      7   57
    Core    0  1  0  1    10.100      8   58
    Core    0  0  1  1    10.100      9   59
    Core    2  0  0  0    11.650     10   60
    Core    1  1  0  0    11.650     11   61
    Core    1  0  1  0    11.650     12   62
    Core    0  2  0  0    11.650     13   63
    Core    0  1  1  0    11.650     14   64
    Core    0  0  2  0    11.650     15   65
            0  0  0  3     6.350     16   66
            0  0  0  3     4.050     17   67
            0  0  0  4     2.600     18   68
            0  0  0  4     1.550     19   69
            0  0  0  4     0.950     20   70
            1  0  0  2     6.150     21   71
            0  1  0  2     6.150     22   72
            0  0  1  2     6.150     23   73
            1  0  0  2     4.150     24   74
            0  1  0  2     4.150     25   75
            0  0  1  2     4.150     26   76
            1  0  0  2     2.900     27   77
            0  1  0  2     2.900     28   78
            0  0  1  2     2.900     29   79
            2  0  0  1     4.750     30   80
            1  1  0  1     4.750     31   81
            1  0  1  1     4.750     32   82
            0  2  0  1     4.750     33   83
            0  1  1  1     4.750     34   84
            0  0  2  1     4.750     35   85
            2  0  0  1     2.600     36   86
            1  1  0  1     2.600     37   87
            1  0  1  1     2.600     38   88
            0  2  0  1     2.600     39   89
            0  1  1  1     2.600     40   90
            0  0  2  1     2.600     41   91
            2  0  0  1     1.380     42   92
            1  1  0  1     1.380     43   93
            1  0  1  1     1.380     44   94
            0  2  0  1     1.380     45   95
            0  1  1  1     1.380     46   96
            0  0  2  1     1.380     47   97
            1  0  0  3     1.550     48   98
            0  1  0  3     1.550     49   99
            0  0  1  3     1.550     50  100

 Total number of charge fitting functions (nprimf)       460
 Total number of Cartesian basis functions (naos)        100
 Total number of Cartesian core functions  (ncos)         30

           Primitive Internal Coordinates (atoms in internal order)
-------------------------------------------------------------------------------
    index    type      i       j       k       l   value(A,deg)     strength
-------------------------------------------------------------------------------
       1     bnd       1       2       0       0     2.55743510     1.04679508


 Coordinates (Cartesian)
 =======================

     Atom                    bohr                                 angstrom                 Geometric Variables
                   X           Y           Z              X           Y           Z       (0:frozen, *:LT par.)
 --------------------------------------------------------------------------------------------------------------
     1 Ag      0.000000    0.000000    2.416426       0.000000    0.000000    1.278718      1       2       3
     2 Ag      0.000000    0.000000   -2.416426       0.000000    0.000000   -1.278718      4       5       6
 --------------------------------------------------------------------------------------------------------------
1
 ***************************************************************************************************



                                              ***********************
                                              *  T E C H N I C A L  *
                                              ***********************
  



 =============================================================
 P A R A L L E L I Z A T I O N  and  V E C T O R I Z A T I O N
 =============================================================
  
 Nr of parallel processes:                                2
 Maximum vector length in NumInt loops:                 128



 ===============
 I O  vs.  C P U  ***  (store numerical data on disk or recalculate)  ***
 ===============
  
 Basis functions:   recalculate when needed
 Fit functions:     recalculate when needed

 IO buffersize (Mb):                                    256.000000



 ===============================
 G E O M E T R Y   U P D A T E S
 ===============================
  
 Optimization coordinates:                       Delocalized
 Optimization code branch:                       NEW
 Hessian update method:                          BFGS (Broyden-Fletcher-Goldfarb-Shanno)

 Iterative Geometry Improvements:
    Max. nr. of iterations:                        100
    Convergence criteria:
         Change in energy (hartree):                 0.0001000000
         Gradients (au/Angstrom):                    0.0010000000
         Cart/bondlength changes (Angstrom):         0.0100000000
    Max. step to take:
         Trust Radius:                               0.2000000000

 GDIIS (Geometry Direct Inversion in Iteration Space):
    First geometry cycle:                            0
    Max. number expansion vectors:                   5



 =====================
 S C F   U P D A T E S
 =====================
  
 Max. nr. of cycles:                               300
 Convergence criterion:                              0.0000000100
   secondary criterion:                              0.0010000000

 Mix parameter (when DIIS does not apply):           0.2000000000


 DIIS (Direct Inversion in Iteration Space)
    Replace damping when SCF Error is below:         0.5000000000
    Apply anyway after SCF cycle:
                                                     5
    (Max.) nr. of expansion vectors:                10

    Upperbound on expansion coefficients:            5.0000000000
    (when exceeded, IterationSpace is re-built)
    2nd Upperbound on coefficients:                 25.0000000000
    (when exceeded, simple damping will be used)



 =================
 P R E C I S I O N  ***  (General: NumInt, NeglectFunctionTails, ...)  ***
 =================
  

 NumInt:           Target precision:                 6.0000000000
 -------           Initial precision:                6.0000000000
                   Min. precision (optimization):    6.0000000000

 Neglect Functions:          Basis functions:        0.1000000000E-07
 ------------------          Fit functions:          0.1000000000E-07



 ===========================
 L I N E A R   S C A L I N G
 ===========================
  

 Cut-off radii density fit:                        0.1000000000E-09
 Overlap cut-off criterion AO matrix elements:     0.1000000000E-07
 Cut-offs for Coulomb potential and fitted density:0.1000000000E-09
 Cut-off criterion for Coulomb multipole terms:    0.1000000000E-09
 Progressive Convergence parameter:                 0.000000000    
1
 ***************************************************************************************************



                                            ***************************
                                            *  C O M P U T A T I O N  *
                                            ***************************
  

 Number of elements of the density matrix on this node (used, total):      1275      5050



 ====================================================
 Numerical Integration : Voronoi Polyhedra (Te Velde)  ***  (parameters, tests)  ***
 ====================================================
  
 General Accuracy Parameter :                          6.00

 Symmetry used in the points section:  D(LIN)


 Summary of the Symmetry Unique Points:
 --------------------------------------
    Nr. of used Symmetry Operators                     2

    Points in the Atomic Spheres                     221
    Points in the Atomic Polyhedra                   250
    Points in the Outer Region                       181
    ----------------------------------------------------
    Total                                            652

    Sum of Weights                                110782.870964

 Total nr. of points:      13040
 Nr. of blocks:              120
 Block length:               109
 Nr. of dummy points:         40


 Test of Precision of the Numerical Integration Grid
 ===================================================

 Integral of the Total Core Density:                  56.00000010242470
 Relative Error:                                       1.829E-09

 About initial set of coordinates
 --------------------------------
 Number of spheres               =       2
 Number of TOTAL coord.          =       2

 about final set of coordinates
 ------------------------------
 gepol%ncor,gepol%nptsaf,npsurf=       3      60     120


 -------------------------------------------
  COSMO surface
  Area             =          300.073
  Volume           =          438.839
  Number of Points =          120
 -------------------------------------------



 =====
 S C F
 =====
  

 CYCLE    1

 WARNING: DIIS procedure will be reset
 orbitals (Q,E):
 ---------------
 SIGMA.g :1...12     ( 2.00    -3.4935)  ( 2.00    -2.1756)  ( 2.00    -0.3263)  ( 0.00    -0.2133)
                     ( 0.00    -0.0195)  ( 0.00     0.0540)  ( 0.00     0.3742)  ( 0.00     0.5785)
                     ( 0.00     1.1045)  ( 0.00     2.2434)  ( 0.00     4.1605)  ( 0.00     6.3734)
 SIGMA.u :1...12     ( 2.00    -3.4929)  ( 2.00    -2.1693)  ( 2.00    -0.2600)  ( 0.00    -0.1228)
                     ( 0.00     0.0664)  ( 0.00     0.2164)  ( 0.00     0.5360)  ( 0.00     0.7726)
                     ( 0.00     1.1773)  ( 0.00     2.5217)  ( 0.00     4.3853)  ( 0.00     6.8641)
 PI.g :1...7         ( 4.00    -2.1696)  ( 4.00    -0.2659)  ( 0.00     0.0509)  ( 0.00     0.4835)
                     ( 0.00     1.0198)  ( 0.00     2.3913)  ( 0.00     6.4325)
 PI.u :1...7         ( 4.00    -2.1702)  ( 4.00    -0.3055)  ( 0.00    -0.0364)  ( 0.00     0.3009)
                     ( 0.00     0.9347)  ( 0.00     2.2351)  ( 0.00     6.2801)
 DELTA.g :1...3      ( 4.00    -0.2856)  ( 0.00     0.2477)  ( 0.00     2.1935)
 DELTA.u :1...3      ( 4.00    -0.2779)  ( 0.00     0.3532)  ( 0.00     2.2818)

 COSMO charges converged: Iteration #    6 Conv  2.508408E-12
 The total uncorrected surface charge :     -2.01524151
 cosmo_calcen: solen (Hartrees) =   -0.412000

 Solvation energy (screening term,uncorrected) =   -258.533719 kcal/mol

 Solvation energy (dispersion and cavitation terms) =      0.550929 kcal/mol
 Solvation Energy Contributions (Hartrees)
          esola         esolb         esolc
     0.41199971    0.00000000   -0.82399942
 esol   -0.41199971

 CYCLE    2
 d-Pmat  mean:  0.50E-02
 imax=     91:  0.15E-01
 orbitals (Q,E):
 ---------------
 SIGMA.g :1...4      ( 2.00    -3.5343)  ( 2.00    -2.2160)  ( 2.00    -0.3607)  ( 0.00    -0.2274)
 SIGMA.u :1...4      ( 2.00    -3.5337)  ( 2.00    -2.2099)  ( 2.00    -0.2941)  ( 0.00    -0.1304)
 PI.g :1...3         ( 4.00    -2.2087)  ( 4.00    -0.3004)  ( 0.00     0.0466)
 PI.u :1...3         ( 4.00    -2.2093)  ( 4.00    -0.3387)  ( 0.00    -0.0415)
 DELTA.g :1...2      ( 4.00    -0.3181)  ( 0.00     0.2437)
 DELTA.u :1...2      ( 4.00    -0.3110)  ( 0.00     0.3492)

 COSMO charges converged: Iteration #    6 Conv  1.496979E-12
 The total uncorrected surface charge :     -2.01185135
 cosmo_calcen: solen (Hartrees) =   -0.410671

 Solvation energy (screening term,uncorrected) =   -257.699765 kcal/mol

 Solvation energy (dispersion and cavitation terms) =      0.550929 kcal/mol
 Solvation Energy Contributions (Hartrees)
          esola         esolb         esolc
     0.41067072    0.00000000   -0.82134144
 esol   -0.41067072

 CYCLE    3
 d-Pmat  mean:  0.82E-02
 imax=     90:  0.39E-01
 orbitals (Q,E):
 ---------------
[...]
 <Sep01-2015> <10:41:09>  >>>> SURPTS
 <Sep01-2015> <10:41:09>  >>>> CYCLE
 <Sep01-2015> <10:41:09>    1
 <Sep01-2015> <10:41:09>    2  ErrMat   0.02578994  MaxEl -0.00702645
 <Sep01-2015> <10:41:09>    3  ErrMat   0.01557734  MaxEl -0.00443156
 <Sep01-2015> <10:41:09>    4  ErrMat   0.00548744  MaxEl -0.00105479
 <Sep01-2015> <10:41:09>    5  ErrMat   0.00041132  MaxEl -0.00009834
 <Sep01-2015> <10:41:09>    6  ErrMat   0.00009345  MaxEl  0.00001879
 <Sep01-2015> <10:41:09>    7  ErrMat   0.00000634  MaxEl -0.00000138
 <Sep01-2015> <10:41:09>    8  ErrMat   0.00000070  MaxEl -0.00000027
 <Sep01-2015> <10:41:09>  SCF converged
 <Sep01-2015> <10:41:09>    9  ErrMat   0.00000009  MaxEl  0.00000002
 <Sep01-2015> <10:41:09>  >>>> TOTEN
 <Sep01-2015> <10:41:09>  >>>> POPAN
 <Sep01-2015> <10:41:09>  >>>> DEBYE
 <Sep01-2015> <10:41:09>  >>>> AMETS
 <Sep01-2015> <10:41:09>  >>>> ENGRAD
 <Sep01-2015> <10:41:10>  current energy                                0.32432087 Hartree
 <Sep01-2015> <10:41:10>  energy change                      -0.00012004     0.00010000    F
 <Sep01-2015> <10:41:10>  constrained gradient max            0.00020658     0.00100000    T
 <Sep01-2015> <10:41:10>  constrained gradient rms            0.00011927     0.00066667    T
 <Sep01-2015> <10:41:10>  gradient max                        0.00020658
 <Sep01-2015> <10:41:10>  gradient rms                        0.00011927
 <Sep01-2015> <10:41:10>  cart. step max                      0.26458861     0.01000000    F
 <Sep01-2015> <10:41:10>  cart. step rms                      0.15276030     0.00666667    F
  Coordinates in Geometry Cycle 19
    Atom         X           Y           Z   (Angstrom)
    1.Ag        0.000000    0.000000    4.667305
    2.Ag        0.000000    0.000000   -4.667305
 <Sep01-2015> <10:41:10>  >>>> CORORT
 <Sep01-2015> <10:41:10>  >>>> FITINT
 <Sep01-2015> <10:41:10>  >>>> CLSMAT
 <Sep01-2015> <10:41:10>  >>>> ORTHON
 <Sep01-2015> <10:41:10>  >>>> GENPT
 <Sep01-2015> <10:41:10>  Acc.Num.Int.=   6.000
 <Sep01-2015> <10:41:10>  Block Length= 113
 <Sep01-2015> <10:41:10>  >>>> PTBAS
 <Sep01-2015> <10:41:10>  >>>> SURPTS
 <Sep01-2015> <10:41:10>  >>>> CYCLE
 <Sep01-2015> <10:41:10>    1
 <Sep01-2015> <10:41:10>    2  ErrMat   0.02500015  MaxEl -0.00694796
 <Sep01-2015> <10:41:10>    3  ErrMat   0.01481555  MaxEl -0.00436946
 <Sep01-2015> <10:41:10>    4  ErrMat   0.00583233  MaxEl -0.00119119
 <Sep01-2015> <10:41:10>    5  ErrMat   0.00032108  MaxEl -0.00007921
 <Sep01-2015> <10:41:11>    6  ErrMat   0.00008311  MaxEl  0.00001707
 <Sep01-2015> <10:41:11>    7  ErrMat   0.00000427  MaxEl -0.00000097
 <Sep01-2015> <10:41:11>  SCF converged
 <Sep01-2015> <10:41:11>    8  ErrMat   0.00000033  MaxEl  0.00000008
 <Sep01-2015> <10:41:11>  >>>> TOTEN
 <Sep01-2015> <10:41:11>  >>>> POPAN
 <Sep01-2015> <10:41:11>  >>>> DEBYE
 <Sep01-2015> <10:41:11>  >>>> AMETS
 <Sep01-2015> <10:41:11>  >>>> ENGRAD
 <Sep01-2015> <10:41:11>  current energy                                0.32421925 Hartree
 <Sep01-2015> <10:41:11>  energy change                      -0.00010163     0.00010000    F
 <Sep01-2015> <10:41:11>  constrained gradient max            0.00019408     0.00100000    T
 <Sep01-2015> <10:41:11>  constrained gradient rms            0.00011205     0.00066667    T
 <Sep01-2015> <10:41:11>  gradient max                        0.00019408
 <Sep01-2015> <10:41:11>  gradient rms                        0.00011205
 <Sep01-2015> <10:41:11>  cart. step max                      0.26458861     0.01000000    F
 <Sep01-2015> <10:41:11>  cart. step rms                      0.15276030     0.00666667    F
  Coordinates in Geometry Cycle 20
    Atom         X           Y           Z   (Angstrom)
    1.Ag        0.000000    0.000000    4.931893
    2.Ag        0.000000    0.000000   -4.931893
 <Sep01-2015> <10:41:11>  >>>> CORORT
 <Sep01-2015> <10:41:11>  >>>> FITINT
 <Sep01-2015> <10:41:11>  >>>> CLSMAT
 <Sep01-2015> <10:41:11>  >>>> ORTHON
 <Sep01-2015> <10:41:11>  >>>> GENPT
 <Sep01-2015> <10:41:11>  Acc.Num.Int.=   6.000
 <Sep01-2015> <10:41:11>  Block Length= 114
 <Sep01-2015> <10:41:11>  >>>> PTBAS
 <Sep01-2015> <10:41:11>  >>>> SURPTS
 <Sep01-2015> <10:41:11>  >>>> CYCLE
 <Sep01-2015> <10:41:12>    1
 <Sep01-2015> <10:41:12>    2  ErrMat   0.02401613  MaxEl -0.00681818
 <Sep01-2015> <10:41:12>    3  ErrMat   0.01415262  MaxEl -0.00429730
 <Sep01-2015> <10:41:12>    4  ErrMat   0.00592914  MaxEl -0.00125551
 <Sep01-2015> <10:41:12>    5  ErrMat   0.00030924  MaxEl -0.00009084
 <Sep01-2015> <10:41:12>    6  ErrMat   0.00022690  MaxEl  0.00012601
 <Sep01-2015> <10:41:12>    7  ErrMat   0.00003767  MaxEl  0.00000790
 <Sep01-2015> <10:41:12>    8  ErrMat   0.00001326  MaxEl  0.00000743
 <Sep01-2015> <10:41:12>    9  ErrMat   0.00000702  MaxEl -0.00000402
 <Sep01-2015> <10:41:12>   10  ErrMat   0.00000255  MaxEl  0.00000146
 <Sep01-2015> <10:41:12>   11  ErrMat   0.00000001  MaxEl  0.00000000
 <Sep01-2015> <10:41:12>  SCF converged
 <Sep01-2015> <10:41:12>   12  ErrMat   0.00000001  MaxEl  0.00000000
 <Sep01-2015> <10:41:12>  >>>> TOTEN
 <Sep01-2015> <10:41:13>  >>>> POPAN
 <Sep01-2015> <10:41:13>  >>>> DEBYE
 <Sep01-2015> <10:41:13>  >>>> AMETS
 <Sep01-2015> <10:41:13>  >>>> ENGRAD
 <Sep01-2015> <10:41:13>  current energy                                0.32413230 Hartree
 <Sep01-2015> <10:41:13>  energy change                      -0.00008695     0.00010000    T
 <Sep01-2015> <10:41:13>  constrained gradient max            0.00017329     0.00100000    T
 <Sep01-2015> <10:41:13>  constrained gradient rms            0.00010005     0.00066667    T
 <Sep01-2015> <10:41:13>  gradient max                        0.00017329
 <Sep01-2015> <10:41:13>  gradient rms                        0.00010005
 <Sep01-2015> <10:41:13>  cart. step max                      0.26458861     0.01000000    F
 <Sep01-2015> <10:41:13>  cart. step rms                      0.15276030     0.00666667    F
  Coordinates in Geometry Cycle 21
    Atom         X           Y           Z   (Angstrom)
    1.Ag        0.000000    0.000000    5.196482
    2.Ag        0.000000    0.000000   -5.196482
 <Sep01-2015> <10:41:13>  >>>> CORORT
 <Sep01-2015> <10:41:13>  >>>> FITINT
 <Sep01-2015> <10:41:13>  >>>> CLSMAT
 <Sep01-2015> <10:41:13>  >>>> ORTHON
 <Sep01-2015> <10:41:13>  >>>> GENPT
 <Sep01-2015> <10:41:13>  Acc.Num.Int.=   6.000
 <Sep01-2015> <10:41:13>  Block Length= 116
 <Sep01-2015> <10:41:13>  >>>> PTBAS
 <Sep01-2015> <10:41:13>  >>>> SURPTS
 <Sep01-2015> <10:41:13>  >>>> CYCLE
 <Sep01-2015> <10:41:13>    1
 <Sep01-2015> <10:41:13>    2  ErrMat   0.02376230  MaxEl -0.00679771
 <Sep01-2015> <10:41:13>    3  ErrMat   0.01397119  MaxEl -0.00426952
 <Sep01-2015> <10:41:13>    4  ErrMat   0.00629198  MaxEl -0.00133818
 <Sep01-2015> <10:41:13>    5  ErrMat   0.00018064  MaxEl -0.00003834
 <Sep01-2015> <10:41:14>    6  ErrMat   0.00007333  MaxEl  0.00001483
 <Sep01-2015> <10:41:14>    7  ErrMat   0.00000364  MaxEl -0.00000080
 <Sep01-2015> <10:41:14>  SCF converged
 <Sep01-2015> <10:41:14>    8  ErrMat   0.00000023  MaxEl  0.00000005
 <Sep01-2015> <10:41:14>  >>>> TOTEN
 <Sep01-2015> <10:41:14>  >>>> POPAN
 <Sep01-2015> <10:41:14>  >>>> DEBYE
 <Sep01-2015> <10:41:14>  >>>> AMETS
 <Sep01-2015> <10:41:14>  >>>> ENGRAD
 <Sep01-2015> <10:41:14>  current energy                                0.32404982 Hartree
 <Sep01-2015> <10:41:14>  energy change                      -0.00008248     0.00010000    T
 <Sep01-2015> <10:41:14>  constrained gradient max            0.00016006     0.00100000    T
 <Sep01-2015> <10:41:14>  constrained gradient rms            0.00009241     0.00066667    T
 <Sep01-2015> <10:41:14>  gradient max                        0.00016006
 <Sep01-2015> <10:41:14>  gradient rms                        0.00009241
 <Sep01-2015> <10:41:14>  cart. step max                      0.26458861     0.01000000    F
 <Sep01-2015> <10:41:14>  cart. step rms                      0.15276030     0.00666667    F
  Coordinates in Geometry Cycle 22
    Atom         X           Y           Z   (Angstrom)
    1.Ag        0.000000    0.000000    5.461071
    2.Ag        0.000000    0.000000   -5.461071
 <Sep01-2015> <10:41:14>  >>>> CORORT
 <Sep01-2015> <10:41:14>  >>>> FITINT
 <Sep01-2015> <10:41:14>  >>>> CLSMAT
 <Sep01-2015> <10:41:14>  >>>> ORTHON
 <Sep01-2015> <10:41:14>  >>>> GENPT
 <Sep01-2015> <10:41:14>  Acc.Num.Int.=   6.000
 <Sep01-2015> <10:41:14>  Block Length= 120
 <Sep01-2015> <10:41:14>  >>>> PTBAS
 <Sep01-2015> <10:41:14>  >>>> SURPTS
 <Sep01-2015> <10:41:14>  >>>> CYCLE
 <Sep01-2015> <10:41:15>    1
 <Sep01-2015> <10:41:15>    2  ErrMat   0.02382889  MaxEl -0.00687110
 <Sep01-2015> <10:41:15>    3  ErrMat   0.01377305  MaxEl -0.00430244
 <Sep01-2015> <10:41:15>    4  ErrMat   0.00662359  MaxEl -0.00142725
 <Sep01-2015> <10:41:15>    5  ErrMat   0.00013614  MaxEl  0.00003237
 <Sep01-2015> <10:41:15>    6  ErrMat   0.00006039  MaxEl  0.00001218
 <Sep01-2015> <10:41:15>    7  ErrMat   0.00000323  MaxEl  0.00000066
 <Sep01-2015> <10:41:15>  SCF converged
 <Sep01-2015> <10:41:15>    8  ErrMat   0.00000026  MaxEl  0.00000005
 <Sep01-2015> <10:41:15>  >>>> TOTEN
 <Sep01-2015> <10:41:15>  >>>> POPAN
 <Sep01-2015> <10:41:15>  >>>> DEBYE
 <Sep01-2015> <10:41:15>  >>>> AMETS
 <Sep01-2015> <10:41:15>  >>>> ENGRAD
 <Sep01-2015> <10:41:16>  current energy                                0.32397161 Hartree
 <Sep01-2015> <10:41:16>  energy change                      -0.00007822     0.00010000    T
 <Sep01-2015> <10:41:16>  constrained gradient max            0.00013429     0.00100000    T
 <Sep01-2015> <10:41:16>  constrained gradient rms            0.00007753     0.00066667    T
 <Sep01-2015> <10:41:16>  gradient max                        0.00013429
 <Sep01-2015> <10:41:16>  gradient rms                        0.00007753
 <Sep01-2015> <10:41:16>  cart. step max                      0.26458861     0.01000000    F
 <Sep01-2015> <10:41:16>  cart. step rms                      0.15276030     0.00666667    F
  Coordinates in Geometry Cycle 23
    Atom         X           Y           Z   (Angstrom)
    1.Ag        0.000000    0.000000    5.725659
    2.Ag        0.000000    0.000000   -5.725659
 <Sep01-2015> <10:41:16>  >>>> CORORT
 <Sep01-2015> <10:41:16>  >>>> FITINT
 <Sep01-2015> <10:41:16>  >>>> CLSMAT
 <Sep01-2015> <10:41:16>  >>>> ORTHON
 <Sep01-2015> <10:41:16>  >>>> GENPT
 <Sep01-2015> <10:41:16>  Acc.Num.Int.=   6.000
 <Sep01-2015> <10:41:16>  Block Length= 123
 <Sep01-2015> <10:41:16>  >>>> PTBAS
 <Sep01-2015> <10:41:16>  >>>> SURPTS
 <Sep01-2015> <10:41:16>  >>>> CYCLE
 <Sep01-2015> <10:41:16>    1
 <Sep01-2015> <10:41:16>    2  ErrMat   0.02400881  MaxEl -0.00694087
 <Sep01-2015> <10:41:16>    3  ErrMat   0.01371728  MaxEl -0.00432778
 <Sep01-2015> <10:41:16>    4  ErrMat   0.00691290  MaxEl -0.00150288
 <Sep01-2015> <10:41:16>    5  ErrMat   0.00012801  MaxEl  0.00003208
 <Sep01-2015> <10:41:16>    6  ErrMat   0.00006443  MaxEl  0.00001286
 <Sep01-2015> <10:41:16>    7  ErrMat   0.00000222  MaxEl -0.00000055
 <Sep01-2015> <10:41:16>  SCF converged
 <Sep01-2015> <10:41:16>    8  ErrMat   0.00000013  MaxEl  0.00000003
 <Sep01-2015> <10:41:16>  >>>> TOTEN
 <Sep01-2015> <10:41:17>  >>>> POPAN
 <Sep01-2015> <10:41:17>  >>>> DEBYE
 <Sep01-2015> <10:41:17>  >>>> AMETS
 <Sep01-2015> <10:41:17>  >>>> ENGRAD
 <Sep01-2015> <10:41:17>  current energy                                0.32390107 Hartree
 <Sep01-2015> <10:41:17>  energy change                      -0.00007054     0.00010000    T
 <Sep01-2015> <10:41:17>  constrained gradient max            0.00012627     0.00100000    T
 <Sep01-2015> <10:41:17>  constrained gradient rms            0.00007290     0.00066667    T
 <Sep01-2015> <10:41:17>  gradient max                        0.00012627
 <Sep01-2015> <10:41:17>  gradient rms                        0.00007290
 <Sep01-2015> <10:41:17>  cart. step max                      0.26458861     0.01000000    F
 <Sep01-2015> <10:41:17>  cart. step rms                      0.15276030     0.00666667    F
  Coordinates in Geometry Cycle 24
    Atom         X           Y           Z   (Angstrom)
    1.Ag        0.000000    0.000000    5.990248
    2.Ag        0.000000    0.000000   -5.990248
 <Sep01-2015> <10:41:17>  >>>> CORORT
 <Sep01-2015> <10:41:17>  >>>> FITINT
 <Sep01-2015> <10:41:17>  >>>> CLSMAT
 <Sep01-2015> <10:41:17>  >>>> ORTHON
 <Sep01-2015> <10:41:17>  >>>> GENPT
 <Sep01-2015> <10:41:17>  Acc.Num.Int.=   6.000
 <Sep01-2015> <10:41:17>  Block Length= 124
 <Sep01-2015> <10:41:17>  >>>> PTBAS
 <Sep01-2015> <10:41:17>  >>>> SURPTS
 <Sep01-2015> <10:41:17>  >>>> CYCLE
 <Sep01-2015> <10:41:17>    1
 <Sep01-2015> <10:41:17>    2  ErrMat   0.02372448  MaxEl -0.00690080
 <Sep01-2015> <10:41:17>    3  ErrMat   0.01365495  MaxEl -0.00431324
 <Sep01-2015> <10:41:17>    4  ErrMat   0.00724687  MaxEl -0.00157335
 <Sep01-2015> <10:41:18>    5  ErrMat   0.00014037  MaxEl  0.00002962
 <Sep01-2015> <10:41:18>    6  ErrMat   0.00004990  MaxEl  0.00000969
 <Sep01-2015> <10:41:18>    7  ErrMat   0.00000266  MaxEl -0.00000054
 <Sep01-2015> <10:41:18>  SCF converged
 <Sep01-2015> <10:41:18>    8  ErrMat   0.00000019  MaxEl  0.00000004
 <Sep01-2015> <10:41:18>  >>>> TOTEN
 <Sep01-2015> <10:41:18>  >>>> POPAN
 <Sep01-2015> <10:41:18>  >>>> DEBYE
 <Sep01-2015> <10:41:18>  >>>> AMETS
 <Sep01-2015> <10:41:18>  >>>> ENGRAD
 <Sep01-2015> <10:41:18>  current energy                                0.32383731 Hartree
 <Sep01-2015> <10:41:18>  energy change                      -0.00006376     0.00010000    T
 <Sep01-2015> <10:41:18>  constrained gradient max            0.00011352     0.00100000    T
 <Sep01-2015> <10:41:18>  constrained gradient rms            0.00006554     0.00066667    T
 <Sep01-2015> <10:41:18>  gradient max                        0.00011352
 <Sep01-2015> <10:41:18>  gradient rms                        0.00006554
 <Sep01-2015> <10:41:18>  cart. step max                      0.26458861     0.01000000    F
 <Sep01-2015> <10:41:18>  cart. step rms                      0.15276030     0.00666667    F
  Coordinates in Geometry Cycle 25
    Atom         X           Y           Z   (Angstrom)
    1.Ag        0.000000    0.000000    6.254837
    2.Ag        0.000000    0.000000   -6.254837
 <Sep01-2015> <10:41:18>  >>>> CORORT
 <Sep01-2015> <10:41:18>  >>>> FITINT
 <Sep01-2015> <10:41:18>  >>>> CLSMAT
 <Sep01-2015> <10:41:18>  >>>> ORTHON
 <Sep01-2015> <10:41:18>  >>>> GENPT
 <Sep01-2015> <10:41:18>  Acc.Num.Int.=   6.000
 <Sep01-2015> <10:41:18>  Block Length= 111
 <Sep01-2015> <10:41:18>  >>>> PTBAS
 <Sep01-2015> <10:41:19>  >>>> SURPTS
 <Sep01-2015> <10:41:19>  >>>> CYCLE
 <Sep01-2015> <10:41:19>    1
 <Sep01-2015> <10:41:19>    2  ErrMat   0.02370680  MaxEl -0.00693709
 <Sep01-2015> <10:41:19>    3  ErrMat   0.01335076  MaxEl -0.00432493
 <Sep01-2015> <10:41:19>    4  ErrMat   0.00717833  MaxEl -0.00158090
 <Sep01-2015> <10:41:19>    5  ErrMat   0.00014426  MaxEl  0.00002884
 <Sep01-2015> <10:41:19>    6  ErrMat   0.00005326  MaxEl  0.00001053
 <Sep01-2015> <10:41:19>    7  ErrMat   0.00000168  MaxEl -0.00000041
 <Sep01-2015> <10:41:19>  SCF converged
 <Sep01-2015> <10:41:19>    8  ErrMat   0.00000011  MaxEl  0.00000002
 <Sep01-2015> <10:41:19>  >>>> TOTEN
 <Sep01-2015> <10:41:19>  >>>> POPAN
 <Sep01-2015> <10:41:19>  >>>> DEBYE
 <Sep01-2015> <10:41:19>  >>>> AMETS
 <Sep01-2015> <10:41:19>  >>>> ENGRAD
 <Sep01-2015> <10:41:20>  current energy                                0.32378109 Hartree
 <Sep01-2015> <10:41:20>  energy change                      -0.00005622     0.00010000    T
 <Sep01-2015> <10:41:20>  constrained gradient max            0.00010483     0.00100000    T
 <Sep01-2015> <10:41:20>  constrained gradient rms            0.00006052     0.00066667    T
 <Sep01-2015> <10:41:20>  gradient max                        0.00010483
 <Sep01-2015> <10:41:20>  gradient rms                        0.00006052
 <Sep01-2015> <10:41:20>  cart. step max                      0.26458861     0.01000000    F
 <Sep01-2015> <10:41:20>  cart. step rms                      0.15276030     0.00666667    F
  Coordinates in Geometry Cycle 26
    Atom         X           Y           Z   (Angstrom)
    1.Ag        0.000000    0.000000    6.519425
    2.Ag        0.000000    0.000000   -6.519425
 <Sep01-2015> <10:41:20>  >>>> CORORT
 <Sep01-2015> <10:41:20>  >>>> FITINT
 <Sep01-2015> <10:41:20>  >>>> CLSMAT
 <Sep01-2015> <10:41:20>  >>>> ORTHON
 <Sep01-2015> <10:41:20>  >>>> GENPT
 <Sep01-2015> <10:41:20>  Acc.Num.Int.=   6.000
 <Sep01-2015> <10:41:20>  Block Length= 112
 <Sep01-2015> <10:41:20>  >>>> PTBAS
 <Sep01-2015> <10:41:20>  >>>> SURPTS
 <Sep01-2015> <10:41:20>  >>>> CYCLE
 <Sep01-2015> <10:41:20>    1
 <Sep01-2015> <10:41:20>    2  ErrMat   0.02337158  MaxEl -0.00686788
 <Sep01-2015> <10:41:20>    3  ErrMat   0.01321110  MaxEl -0.00428688
 <Sep01-2015> <10:41:20>    4  ErrMat   0.00730163  MaxEl -0.00160395
 <Sep01-2015> <10:41:20>    5  ErrMat   0.00017522  MaxEl  0.00003381
 <Sep01-2015> <10:41:20>    6  ErrMat   0.00004436  MaxEl  0.00000870
 <Sep01-2015> <10:41:20>    7  ErrMat   0.00000197  MaxEl -0.00000043
 <Sep01-2015> <10:41:20>  SCF converged
 <Sep01-2015> <10:41:21>    8  ErrMat   0.00000012  MaxEl  0.00000003
 <Sep01-2015> <10:41:21>  >>>> TOTEN
 <Sep01-2015> <10:41:21>  >>>> POPAN
 <Sep01-2015> <10:41:21>  >>>> DEBYE
 <Sep01-2015> <10:41:21>  >>>> AMETS
 <Sep01-2015> <10:41:21>  >>>> ENGRAD
 <Sep01-2015> <10:41:21>  current energy                                0.32372822 Hartree
 <Sep01-2015> <10:41:21>  energy change                      -0.00005286     0.00010000    T
 <Sep01-2015> <10:41:21>  constrained gradient max            0.00009676     0.00100000    T
 <Sep01-2015> <10:41:21>  constrained gradient rms            0.00005586     0.00066667    T
 <Sep01-2015> <10:41:21>  gradient max                        0.00009676
 <Sep01-2015> <10:41:21>  gradient rms                        0.00005586
 <Sep01-2015> <10:41:21>  cart. step max                      0.26458861     0.01000000    F
 <Sep01-2015> <10:41:21>  cart. step rms                      0.15276030     0.00666667    F
 <Sep01-2015> <10:41:21>  GEOMETRY CONVERGED
 <Sep01-2015> <10:41:21>  Calculating Energy Terms for Final Geometry
  Coordinates in Geometry Cycle 26
    Atom         X           Y           Z   (Angstrom)
    1.Ag        0.000000    0.000000    6.519425
    2.Ag        0.000000    0.000000   -6.519425
 <Sep01-2015> <10:41:21>  >>>> CORORT
 <Sep01-2015> <10:41:21>  >>>> FITINT
 <Sep01-2015> <10:41:21>  >>>> CLSMAT
 <Sep01-2015> <10:41:21>  >>>> ORTHON
 <Sep01-2015> <10:41:21>  >>>> GENPT
 <Sep01-2015> <10:41:21>  Acc.Num.Int.=   6.000
 <Sep01-2015> <10:41:21>  Block Length= 112
 <Sep01-2015> <10:41:21>  >>>> PTBAS
 <Sep01-2015> <10:41:21>  >>>> SURPTS
 <Sep01-2015> <10:41:21>  >>>> CYCLE
 <Sep01-2015> <10:41:21>    1
 <Sep01-2015> <10:41:21>    2  ErrMat   0.02338475  MaxEl -0.00687637
 <Sep01-2015> <10:41:21>    3  ErrMat   0.01321196  MaxEl -0.00429205
 <Sep01-2015> <10:41:22>    4  ErrMat   0.00732693  MaxEl -0.00160993
 <Sep01-2015> <10:41:22>    5  ErrMat   0.00017659  MaxEl  0.00003427
 <Sep01-2015> <10:41:22>    6  ErrMat   0.00004393  MaxEl  0.00000860
 <Sep01-2015> <10:41:22>    7  ErrMat   0.00000194  MaxEl -0.00000043
 <Sep01-2015> <10:41:22>    8  ErrMat   0.00000012  MaxEl  0.00000003
 <Sep01-2015> <10:41:22>    9  ErrMat   0.00000001  MaxEl  0.00000000
 <Sep01-2015> <10:41:22>  SCF converged
 <Sep01-2015> <10:41:22>   10  ErrMat   0.00000000  MaxEl  0.00000000
 <Sep01-2015> <10:41:22>  >>>> TOTEN
 <Sep01-2015> <10:41:22>  >>>> POPAN
 <Sep01-2015> <10:41:22>  >>>> DEBYE
 <Sep01-2015> <10:41:22>  >>>> AMETS
 <Sep01-2015> <10:41:22>  >>>> POPUL
 <Sep01-2015> <10:41:22>   Bond Energy           0.32372822 a.u.
 <Sep01-2015> <10:41:22>   Bond Energy           8.80909317 eV
 <Sep01-2015> <10:41:22>   Bond Energy         203.14       kcal/mol
 <Sep01-2015> <10:41:22>  NORMAL TERMINATION
 <Sep01-2015> <10:41:22>  END
