
 *******************************************************************************
 *                                                                             *
 *  -------------------------------------                                      *
 *   Amsterdam Density Functional  (ADF)         2012.01   January 26, 2012    *
 *  -------------------------------------                                      *
 *                                               Build 201201262206            *
 *                                                                             *
 *                                                                             *
 *                            =====================                            *
 *                            |                   |                            *
 *                            |     D I R A C     |                            *
 *                            |                   |                            *
 *                            =====================                            *
 *                                                                             *
 *                                                                             *
 *   Online information and documentation:  http://www.scm.com                 *
 *   E-mail:  support@scm.com   info@scm.com                                   *
 *                                                                             *
 *   Scientific publications using ADF results must be properly referenced     *
 *   See the User Manuals (or the web site) for recommended citations          *
 *   The terms and conditions of the End User License Agreement apply to       *
 *   the use of ADF, http://www.scm.com/Sales/LicAgreement.html                *
 *                                                                             *
 *****************************  pentium64_linux  *******************************
 
 DIRAC 2012.01  RunTime: Sep28-2015 15:21:20  Nodes: 1  Procs: 1

 Temporary files are created in /tmp/2116366.1.batch.q/kid_0.PouewE

1
 SILVER ATOM 3d CORE RELATIVISTIC, Point Nuc, A and c from li
 N J RN H ZN XION ANUC CLIGHT
 5000   15100.00000000197.36710137 47.00000000  0.00000000  106.905093  0.1370360E+03
  PH   PHI     EPS        DEL        DELRVR
  0.30  0.30     2500.00  0.00001000  0.00001000
 IDIRC  NC1  NDEBU NPRIN  IPUN IRCOR IWCOR
   1   300     0     0     0     0     9
   XALPHA      XLATTER      RNUC
  0.70000000  0.00000000  0.00000000 Point Charge
   XN   XL   XJ      XE          XZ      XDELL
  1.0  0.0  0.5   -1500.000       2.000     0.00000
  2.0  0.0  0.5    -325.000       2.000     0.00000
  2.0  1.0  0.5    -325.000       2.000     0.00000
  2.0  1.0  1.5    -325.000       4.000     0.00000
  3.0  0.0  0.5     -70.000       2.000     0.00000
  3.0  1.0  0.5     -70.000       2.000     0.00000
  3.0  1.0  1.5     -70.000       4.000     0.00000
  3.0  2.0  1.5     -60.000       4.000     0.00000
  3.0  2.0  2.5     -60.000       6.000     0.00000
  4.0  0.0  0.5     -10.000       2.000     0.00000
  4.0  1.0  0.5     -10.000       2.000     0.00000
  4.0  1.0  1.5     -10.000       4.000     0.00000
  4.0  2.0  1.5      -1.000       4.000     0.00000
  4.0  2.0  2.5      -1.000       6.000     0.00000
  5.0  0.0  0.5      -0.500       1.000     0.00000
 ICORP=  0  NPCL=  0  DEMP=0.00  PEPS=0.000000
 R(1)=  0.1000000E-08 D=  0.1005080E+01 RNUC=  0.0000000E+00
 converged at cycle   37  DENSITY AVERAGING    0.1536
  MAXIMUM ERROR IN R.V(R) IS   0.73266205E-05
 Q,EY,EV,EZ,ESUM,ETOT,RHO  0.470000E+02 -0.196167E+03 -0.876390E+04 -0.128962E+05 -0.319969E+04 -0.531488E+04  0.734901E-11


 DIRAC CALCULATION
1                    SILVER ATOM 3d CORE RELATIVISTIC, Point Nuc, A and c from libtc


 EXCHANGE COEFFICIENT=  0.7000000           TAIL CORRECTION=  0.           NUCLEAR RADIUS=  0.000E+00
0                       ORBITAL    N    L    J     ELECTRONS     EIGENVALUE                DELTA OF EIGENV.

                          1S1/2  1.0  0.0  0.5     2.000       -0.9298445E+03                 0.2273091E-04
                          2S1/2  2.0  0.0  0.5     2.000       -0.1369628E+03                 0.3639498E-04
                          2P1/2  2.0  1.0  0.5     2.000       -0.1273849E+03                 0.3693015E-04
                          2P3/2  2.0  1.0  1.5     4.000       -0.1209397E+03                 0.3702741E-04
                          3S1/2  3.0  0.0  0.5     2.000       -0.2508734E+02                 0.1716513E-04
                          3P1/2  3.0  1.0  0.5     2.000       -0.2126622E+02                 0.1799299E-04
                          3P3/2  3.0  1.0  1.5     4.000       -0.2012758E+02                 0.1718269E-04
                          3D3/2  3.0  2.0  1.5     4.000       -0.1333155E+02                 0.2053383E-04
                          3D5/2  3.0  2.0  2.5     6.000       -0.1310170E+02                 0.2025648E-04
                          4S1/2  4.0  0.0  0.5     2.000       -0.3467319E+01                 0.6825765E-06
                          4P1/2  4.0  1.0  0.5     2.000       -0.2259901E+01                 0.4193829E-06
                          4P3/2  4.0  1.0  1.5     4.000       -0.2069785E+01                 0.2705207E-06
                          4D3/2  4.0  2.0  1.5     4.000       -0.2640772E+00                 0.3034642E-06
                          4D5/2  4.0  2.0  2.5     6.000       -0.2433402E+00                 0.3285318E-06
                          5S1/2  5.0  0.0  0.5     1.000       -0.1450750E+00                 0.2931479E-06


                                        NUCLEAR CHARGE=   47.000000
                            INTEGRAL OF CHARGE DENSITY=   47.000000
                           SUM OF THE ORBITAL ENERGIES=  -3199.6921
                                          TOTAL ENERGY=  -5314.8812
                                        KINETIC ENERGY=   5564.2055
                             NUCLEAR ATTRACTION ENERGY= -12896.1922
                             ELECTRON REPULSION ENERGY=   2164.2310
                                       EXCHANGE ENERGY=   -147.1255

 *******************************************************************************

                             D I R A C   E X I T
 NORMAL TERMINATION



 =================
 Timing Statistics
 =================
  
 Total Used :                     CPU=        0.41      System=        0.06     Elapsed=       14.47

 Calls  Section                     ( Mean, Percentage )
 ---------------------------------------------------------------------------------------------------
     2  ><      ................      0.00    0.00             0.00    0.00             0.00    0.00
     1  EXIT PROCEDURE .........      0.41  100.00             0.06  100.00            14.47  100.00


 Currently Open Files (EXIT00)
 ====================

 Unit    Access Format  Status   Type       Ident (file)
 -------------------------------------------------------
   3      SEQ    FORM   TRANSP  NORMAL      LOGFILE
                                          ( logfile )


 Buffered I/O statistics
 =======================
 Memory available:                    268435456
 Number of records fitting in memory:     64527
 Input : 100.0% of                            0  *4k bytes
 Output: 100.0% of                            0  *4k bytes
 Records from serial files evicted:           0
                    others evicted:           0
 Hash table lookups:          0 with          0 conflicts (100.00%)
(INPUT FILE)
Create Ag   file=/homes/cmaikens/adf2012.01/atomicdata/ZORA/TZP/Ag.3d
XC
GGA Becke Perdew
End
relativistic ZORA
Corepotentials t12.rel
End Input

 *******************************************************************************
 *                                                                             *
 *  -------------------------------------                                      *
 *   Amsterdam Density Functional  (ADF)         2012.01   January 26, 2012    *
 *  -------------------------------------                                      *
 *                                               Build 201201262307            *
 *                                                                             *
 *                                                                             *
 *                              =================                              *
 *                              |               |                              *
 *                              |     A D F     |                              *
 *                              |               |                              *
 *                              =================                              *
 *                                                                             *
 *                                                                             *
 *   Online information and documentation:  http://www.scm.com                 *
 *   E-mail:  support@scm.com   info@scm.com                                   *
 *                                                                             *
 *   Scientific publications using ADF results must be properly referenced     *
 *   See the User Manuals (or the web site) for recommended citations          *
 *   The terms and conditions of the End User License Agreement apply to       *
 *   the use of ADF, http://www.scm.com/Sales/LicAgreement.html                *
 *                                                                             *
 **********************  pentium64_linux / platform_mpi  ***********************
 
 ADF 2012.01  RunTime: Sep28-2015 15:21:31  Nodes: 1  Procs: 1

 Temporary files are created in /tmp/2116366.1.batch.q/kid_0.m8fpSx

 Silver (TZP, 3d frozen)



 ===========================
 A T T A C H E D   F I L E S
 ===========================
  
 CREATE - Data File:    /homes/cmaikens/adf2012.01/atomicdata/ZORA/TZP/Ag.3d
                        Silver (TZP, 3d frozen)
 Core Potentials:
         file : t12.rel



 ===============================
 M O D E L   P A R A M E T E R S
 ===============================
  
 DENSITY FUNCTIONAL POTENTIAL (scf)
    LDA:                               VWN                                      
    Gradient Corrections:              Becke88 Perdew86                        == Not Default ==

 SPIN  (restricted / unrestr.)
    Molecule:                          Restricted                               

 OTHER ASPECTS
    Relativistic Corrections:          scalar (ZORA,SAPA)                       *** SPECIAL ***

    Nuclear Charge Density Model:      Point Charge Nuclei                                                                                                                                                                                     
    Core Treatment:                    Frozen Orbital(s)                        

    Electric Field:                    ---                                      

    Hyperfine or Zeeman Interaction:   ---                                      



 =====================================
 S Y M M E T R Y ,   E L E C T R O N S
 =====================================
  
 Symmetry: ATOM

 Irreducible Representations, including subspecies
 -------------------------------------------------
 S
 P:x  P:y  P:z
 D:z2  D:x2-y2  D:xy  D:xz  D:yz
 F:z3  F:z  F:xyz  F:z2x  F:z2y  F:x  F:y


 Configuration of Valence Electrons
 ==================================

          Occupation Numbers
          -------------------------------------------------
 S        2 1
 P        6
 D        10
 F        0
          -------------------------------------------------

 Total:   19

 Net Charge: 0 (Nuclei minus Electrons)

 Preset values for MO occupations will be applied through SCF cycle no. 1000000
 Thereafter, the program will assign electrons to MOs that are spatially
 similar to the occupied MOs in a "reference" cycle ("KeepOrbitals").
 The reference cycle is always the PREVIOUS cycle: it will evolve with
 the SCF procedure.



 ================================
 (Slater-type)  F U N C T I O N S  ***  (Basis and Fit)  ***
 ================================
  

 Atom Type    1  (Ag)
 ==============

 Valence Basis Sets:  18
 -----------------------
   1 S   30.800000
   2 S   20.300000
   3 S    9.550000
   2 P   21.100000
   3 P   10.100000
   3 D   11.650000
   4 S    6.350000
   4 S    4.050000
   5 S    2.600000
   5 S    1.550000
   5 S    0.950000
   4 P    6.150000
   4 P    4.150000
   4 P    2.900000
   4 D    4.750000
   4 D    2.600000
   4 D    1.380000
   5 P    1.550000

 Frozen Core Shells
 ------------------
    S:  3
    P:  2
    D:  1

 Charge Fitting Sets (for the computation of the Coulomb Potential):  51
 -----------------------------------------------------------------------
   1 S   61.600000
   1 S   36.350000
   2 S   39.760000
   3 S   38.850000
   3 S   27.540000
   4 S   25.820000
   4 S   19.060000
   5 S   17.540000
   5 S   13.330000
   6 S   12.140000
   6 S    9.440000
   7 S    8.550000
   7 S    6.760000
   8 S    6.110000
   8 S    4.900000
   8 S    3.930000
   9 S    3.550000
   9 S    2.880000
   9 S    2.340000
   9 S    1.900000
   2 P   51.900000
   3 P   41.280000
   4 P   32.450000
   5 P   25.520000
   6 P   20.150000
   6 P   13.650000
   7 P   10.840000
   7 P    7.550000
   8 P    6.030000
   8 P    4.290000
   9 P    3.450000
   9 P    2.500000
   3 D   42.450000
   4 D   30.180000
   5 D   21.700000
   6 D   15.790000
   6 D    9.890000
   7 D    7.280000
   7 D    4.710000
   8 D    3.510000
   8 D    2.330000
   4 F   32.800000
   5 F   21.490000
   6 F   14.360000
   6 F    8.280000
   7 F    5.640000
   7 F    3.380000
   5 G   23.300000
   6 G   11.600000
   7 G    6.010000
   7 G    2.760000


 BAS: List of all Elementary Cartesian Basis Functions
 =====================================================

 The numbering in the list below (to the right of the function characteristics) is referred
 to in print-outs of MO eigenvectors and Mulliken populations in the BAS representation
 (as contrasted to the SFO representation).

 Notes:
 1. The functions are characterized by a polynomial prefactor (powers of x,y,z and r) and
    an exponential decay factor alpha.
 2. Since the basis sets are specific for an atom TYPE, the individual functions occur on
    all atoms of that type.
 3. The word 'Core' in the left margin signals that it is a Core Function (CF) : not a
    degree of freedom in the valence set, but only used to ensure orthogonalization of
    the other valence basis functions on the frozen Core Orbitals.


 (power of) X  Y  Z  R     Alpha  on Atom
            ==========     =====     ==========

 Ag                                   1
                                  ---------------------------------------------------------------------------
    Core    0  0  0  0    30.800      1
    Core    0  0  0  1    20.300      2
    Core    0  0  0  2     9.550      3
    Core    1  0  0  0    21.100      4
    Core    0  1  0  0    21.100      5
    Core    0  0  1  0    21.100      6
    Core    1  0  0  1    10.100      7
    Core    0  1  0  1    10.100      8
    Core    0  0  1  1    10.100      9
    Core    2  0  0  0    11.650     10
    Core    1  1  0  0    11.650     11
    Core    1  0  1  0    11.650     12
    Core    0  2  0  0    11.650     13
    Core    0  1  1  0    11.650     14
    Core    0  0  2  0    11.650     15
            0  0  0  3     6.350     16
            0  0  0  3     4.050     17
            0  0  0  4     2.600     18
            0  0  0  4     1.550     19
            0  0  0  4     0.950     20
            1  0  0  2     6.150     21
            0  1  0  2     6.150     22
            0  0  1  2     6.150     23
            1  0  0  2     4.150     24
            0  1  0  2     4.150     25
            0  0  1  2     4.150     26
            1  0  0  2     2.900     27
            0  1  0  2     2.900     28
            0  0  1  2     2.900     29
            2  0  0  1     4.750     30
            1  1  0  1     4.750     31
            1  0  1  1     4.750     32
            0  2  0  1     4.750     33
            0  1  1  1     4.750     34
            0  0  2  1     4.750     35
            2  0  0  1     2.600     36
            1  1  0  1     2.600     37
            1  0  1  1     2.600     38
            0  2  0  1     2.600     39
            0  1  1  1     2.600     40
            0  0  2  1     2.600     41
            2  0  0  1     1.380     42
            1  1  0  1     1.380     43
            1  0  1  1     1.380     44
            0  2  0  1     1.380     45
            0  1  1  1     1.380     46
            0  0  2  1     1.380     47
            1  0  0  3     1.550     48
            0  1  0  3     1.550     49
            0  0  1  3     1.550     50

 Total number of charge fitting functions (nprimf)       230
 Total number of Cartesian basis functions (naos)         50
 Total number of Cartesian core functions  (ncos)         15



 BAS: List of all Elementary Cartesian Basis Functions
 =====================================================

 The numbering in the list below (to the right of the function characteristics) is referred
 to in print-outs of MO eigenvectors and Mulliken populations in the BAS representation
 (as contrasted to the SFO representation).

 Notes:
 1. The functions are characterized by a polynomial prefactor (powers of x,y,z and r) and
    an exponential decay factor alpha.
 2. Since the basis sets are specific for an atom TYPE, the individual functions occur on
    all atoms of that type.
 3. The word 'Core' in the left margin signals that it is a Core Function (CF) : not a
    degree of freedom in the valence set, but only used to ensure orthogonalization of
    the other valence basis functions on the frozen Core Orbitals.


 (power of) X  Y  Z  R     Alpha  on Atom
            ==========     =====     ==========

 Ag                                   1
                                  ---------------------------------------------------------------------------
    Core    0  0  0  0    30.800      1
    Core    0  0  0  1    20.300      2
    Core    0  0  0  2     9.550      3
    Core    1  0  0  0    21.100      4
    Core    0  1  0  0    21.100      5
    Core    0  0  1  0    21.100      6
    Core    1  0  0  1    10.100      7
    Core    0  1  0  1    10.100      8
    Core    0  0  1  1    10.100      9
    Core    2  0  0  0    11.650     10
    Core    1  1  0  0    11.650     11
    Core    1  0  1  0    11.650     12
    Core    0  2  0  0    11.650     13
    Core    0  1  1  0    11.650     14
    Core    0  0  2  0    11.650     15
            0  0  0  3     6.350     16
            0  0  0  3     4.050     17
            0  0  0  4     2.600     18
            0  0  0  4     1.550     19
            0  0  0  4     0.950     20
            1  0  0  2     6.150     21
            0  1  0  2     6.150     22
            0  0  1  2     6.150     23
            1  0  0  2     4.150     24
            0  1  0  2     4.150     25
            0  0  1  2     4.150     26
            1  0  0  2     2.900     27
            0  1  0  2     2.900     28
            0  0  1  2     2.900     29
            2  0  0  1     4.750     30
            1  1  0  1     4.750     31
            1  0  1  1     4.750     32
            0  2  0  1     4.750     33
            0  1  1  1     4.750     34
            0  0  2  1     4.750     35
            2  0  0  1     2.600     36
            1  1  0  1     2.600     37
            1  0  1  1     2.600     38
            0  2  0  1     2.600     39
            0  1  1  1     2.600     40
            0  0  2  1     2.600     41
            2  0  0  1     1.380     42
            1  1  0  1     1.380     43
            1  0  1  1     1.380     44
            0  2  0  1     1.380     45
            0  1  1  1     1.380     46
            0  0  2  1     1.380     47
            1  0  0  3     1.550     48
            0  1  0  3     1.550     49
            0  0  1  3     1.550     50
1
 ***************************************************************************************************



                                              ***********************
                                              *  T E C H N I C A L  *
                                              ***********************
  



 =============================================================
 P A R A L L E L I Z A T I O N  and  V E C T O R I Z A T I O N
 =============================================================
  
 Nr of parallel processes:                                1
 Maximum vector length in NumInt loops:                 128



 ===============
 I O  vs.  C P U  ***  (store numerical data on disk or recalculate)  ***
 ===============
  
 Basis functions:   recalculate when needed
 Fit functions:     recalculate when needed

 IO buffersize (Mb):                                    256.000000



 =====================
 S C F   U P D A T E S
 =====================
  
 Max. nr. of cycles:                               100
 Convergence criterion:                              0.0000000100
   secondary criterion:                              0.0000000100

 Mix parameter (when DIIS does not apply):           0.2000000000
 Special mix parameter for the first cycle:          1.0000000000


 DIIS (Direct Inversion in Iteration Space)
    Replace damping when SCF Error is below:         0.5000000000
    Apply anyway after SCF cycle:
                                                     5
    (Max.) nr. of expansion vectors:                10

    Upperbound on expansion coefficients:            5.0000000000
    (when exceeded, IterationSpace is re-built)
    2nd Upperbound on coefficients:                 25.0000000000
    (when exceeded, simple damping will be used)
 Automatic ElectronSmearing (in case of problematic SCF convergence) disabled



 =================
 P R E C I S I O N  ***  (General: NumInt, NeglectFunctionTails, ...)  ***
 =================
  

 NumInt:           Target precision:                10.0000000000
 -------           Initial precision:               10.0000000000
                   Min. precision (optimization):   10.0000000000

 Neglect Functions:          Basis functions:        0.1000000000E-11
 ------------------          Fit functions:          0.1000000000E-11



 ===========================
 L I N E A R   S C A L I N G
 ===========================
  

 Cut-off radii density fit:                        0.1000000000E-13
 Overlap cut-off criterion AO matrix elements:     0.1000000000E-11
 Cut-offs for Coulomb potential and fitted density:0.1000000000E-13
 Cut-off criterion for Coulomb multipole terms:    0.1000000000E-13
 Progressive Convergence parameter:                 0.000000000    
1
 ***************************************************************************************************



                                            ***************************
                                            *  C O M P U T A T I O N  *
                                            ***************************
  

 Number of elements of the density matrix on this node (used, total):      1275      1275



 ====================================================
 Numerical Integration : Voronoi Polyhedra (Te Velde)  ***  (parameters, tests)  ***
 ====================================================
  
 General Accuracy Parameter :                         10.00

 Symmetry used in the points section:  ATOM  


 Summary of the Symmetry Unique Points:
 --------------------------------------
    Nr. of used Symmetry Operators                     1

    Points in the Atomic Spheres                      94
    Points in the Atomic Polyhedra                     0
    Points in the Outer Region                         0
    ----------------------------------------------------
    Total                                             94

    Sum of Weights                                114259.875357

 Total nr. of points:         94
 Nr. of blocks:                1
 Block length:                94
 Nr. of dummy points:          0


 Test of Precision of the Numerical Integration Grid
 ===================================================

 Integral of the Total Core Density:                  27.99999992831499
 Relative Error:                                      -2.560E-09



 =====
 S C F
 =====
  

 CYCLE    1
 orbitals (Q,E):
 ---------------
 S :1...5            ( 2.00    -3.4932)  ( 1.00    -0.1678)  ( 0.00     0.0495)  ( 0.00     0.5481)
                     ( 0.00     4.1890)
 P :1...4            ( 6.00    -2.1702)  ( 0.00     0.0010)  ( 0.00     0.9464)  ( 0.00     6.3133)
 D :1...3            (10.00    -0.2809)  ( 0.00     0.2936)  ( 0.00     2.2251)

 CYCLE    2
 d-Pmat  mean:  0.22E-02
 imax=     33: -0.66E-02
 orbitals (Q,E):
 ---------------
 S :1...3            ( 2.00    -3.4789)  ( 1.00    -0.1655)  ( 0.00     0.0499)
 P :1...2            ( 6.00    -2.1568)  ( 0.00     0.0025)
 D :1...2            (10.00    -0.2711)  ( 0.00     0.2958)

 CYCLE    3
 d-Pmat  mean:  0.14E-02
 imax=     35:  0.43E-02
 orbitals (Q,E):
 ---------------
 S :1...3            ( 2.00    -3.4878)  ( 1.00    -0.1670)  ( 0.00     0.0494)
 P :1...2            ( 6.00    -2.1651)  ( 0.00     0.0014)
 D :1...2            (10.00    -0.2771)  ( 0.00     0.2943)

 CYCLE    4
 d-Pmat  mean:  0.75E-04
 imax=     18:  0.23E-03
 orbitals (Q,E):
 ---------------
 S :1...3            ( 2.00    -3.4884)  ( 1.00    -0.1672)  ( 0.00     0.0493)
 P :1...2            ( 6.00    -2.1657)  ( 0.00     0.0012)
 D :1...2            (10.00    -0.2776)  ( 0.00     0.2941)

 CYCLE    5
 d-Pmat  mean:  0.28E-05
 imax=     18: -0.99E-05
 orbitals (Q,E):
 ---------------
 S :1...3            ( 2.00    -3.4884)  ( 1.00    -0.1672)  ( 0.00     0.0493)
 P :1...2            ( 6.00    -2.1657)  ( 0.00     0.0012)
 D :1...2            (10.00    -0.2775)  ( 0.00     0.2941)

 CYCLE    6
 d-Pmat  mean:  0.17E-07
 imax=     19: -0.13E-06
 orbitals (Q,E):
 ---------------
 S :1...3            ( 2.00    -3.4884)  ( 1.00    -0.1672)  ( 0.00     0.0493)
 P :1...2            ( 6.00    -2.1657)  ( 0.00     0.0012)
 D :1...2            (10.00    -0.2775)  ( 0.00     0.2941)

 CYCLE    7
 d-Pmat  mean:  0.11E-08
 imax=     19: -0.11E-07
 orbitals (Q,E):
 ---------------
 S :1...3            ( 2.00    -3.4884)  ( 1.00    -0.1672)  ( 0.00     0.0493)
 P :1...2            ( 6.00    -2.1657)  ( 0.00     0.0012)
 D :1...2            (10.00    -0.2775)  ( 0.00     0.2941)

 SCF CONVERGED

 CYCLE    8
1
 ***************************************************************************************************



                                                *******************
                                                *  R E S U L T S  *
                                                *******************
  
 *** Setting up for NEW gradients in focky
 *** Using FIT density in focky
 XCFun disabled
 XCFun disabled
 XCFun disabled

 Scaled ZORA Orbital Energies, per Irrep and Spin:
 =================================================
                        Occup              E (au)              E (eV)       Diff (eV) with prev. cycle
                        -----      --------------------        ------       --------------------------
 S
               1        2.000     -0.34883937327255E+01       -94.924               1.01E-09
               2        1.000     -0.16721774376307E+00        -4.550               8.48E-10
               3        0.000      0.49292090859751E-01         1.341
               4        0.000      0.54900113066203E+00        14.939
               5        0.000      0.41923034015691E+01       114.078
 P
               1        6.000     -0.21656535049739E+01       -58.930               1.04E-09
               2        0.000      0.12312059741376E-02         0.034
               3        0.000      0.94805018589873E+00        25.798
               4        0.000      0.63168566721937E+01       171.890
 D
               1       10.000     -0.27753746737237E+00        -7.552               1.07E-09
               2        0.000      0.29412398526233E+00         8.004
               3        0.000      0.22279871540449E+01        60.627


 Partially Occupied:
               2 S                -0.16721774376307E+00
  
 HOMO :        1 D                -0.27753746737237E+00
 LUMO :        2 P                 0.12312059741376E-02
  


 Orbital Energies, all Irreps
 ========================================

 Irrep        no.  (spin)   Occup              E (au)                E (eV)
 ---------------------------------------------------------------------------
 S             1             2.00       -0.34883937327255E+01       -94.9240
 P             1             6.00       -0.21656535049739E+01       -58.9304
 D             1            10.00       -0.27753746737237E+00        -7.5522
 S             2             1.00       -0.16721774376307E+00        -4.5502
 P             2             0.00        0.12312059741376E-02         0.0335
 S             3             0.00        0.49292090859751E-01         1.3413
 D             2             0.00        0.29412398526233E+00         8.0035
 S             4             0.00        0.54900113066203E+00        14.9391
 P             3             0.00        0.94805018589873E+00        25.7978
 D             3             0.00        0.22279871540449E+01        60.6266
 S             5             0.00        0.41923034015691E+01       114.0784
 P             4             0.00        0.63168566721937E+01       171.8904


 Scaled ZORA Orbital Energies of the Core Orbitals:
 ==================================================

 (Note that the atoms are grouped by atomtype, see the labels, and may hence NOT be in input order)

 AtomType  Orbital  Atom                   E (au)                        E (eV)
 --------  -------  ----           --------------------        ----------------
 Ag          1S        1          -0.93051917515589E+03              -25320.715
             2S        1          -0.13700540306455E+03               -3728.107
             3S        1          -0.25114511935225E+02                -683.401
             2P        1          -0.12286153862350E+03               -3343.233
             3P        1          -0.20498924322833E+02                -557.804
             3D        1          -0.13198949396919E+02                -359.162



 =======================================
 M U L L I K E N   P O P U L A T I O N S
 =======================================
  
 The survey below gives for each atom:
 a) the total charge (Z minus electrons)
 b) the net spin polarization (nr of electrons spin-A minus spin-B)
 c) for each spin the atomic electron valence density (integrated) per L-value.

 Atom              Charge    Spin density          S         P         D         F
 ----              ------    ------------       ------    ------    ------    ------
 1 Ag              0.0000                       3.0000    6.0000   10.0000    0.0000

 Populations of individual BAS functions
 ----------------------------------------
 1 Ag          -0.0085  0.0044 -0.0712  0.0003  0.0003  0.0003  0.0270  0.0270  0.0270  0.0387
                0.0580  0.0580  0.0387  0.0580  0.0387  1.3215  0.7613  0.3605  0.5376  0.0943
                0.7450  0.7450  0.7450  1.0681  1.0681  1.0681  0.1587  0.1587  0.1587  0.5515
                0.8273  0.8273  0.5515  0.8273  0.5515  0.6409  0.9614  0.9614  0.6409  0.9614
                0.6409  0.1022  0.1533  0.1533  0.1022  0.1533  0.1022  0.0010  0.0010  0.0010

 Gross Charges per Atom (Z minus electrons)
 ==========================================
             0.0000
 Net Total:  0.00000000


 Atom-Atom Population Matrix (off-diagonal elements not doubled)
 ===============================================================

     1 :    19.0000



 =============
 Dipole Moment  ***  (Debye)  ***
 =============
  
 Vector   :         0.00000000      0.00000000      0.00000000
 Magnitude:         0.00000000

 This molecular dipole moment is calculated with analytic integration



 =========================================
 Quadrupole Moment (Buckingham convention)  ***  (a.u.)  ***
 =========================================
  
      quad-xx        quad-xy        quad-xz        quad-yy        quad-yz        quad-zz
      0.00000000     0.00000000     0.00000000     0.00000000     0.00000000     0.00000000

 This molecular quadrupole moment is calculated with analytic integration



 ===============================================================================
 Electrostatic potential at the Nuclei due to valence electrons and other nuclei
 ===============================================================================
  
         Atom                  Potential
         ----                  ---------
     1)   Ag                 21.10983739
 
 
 ========================
 No memory problems found
 ========================
 
 Maximum number of active allocate calls:         391
 
 *******************************************************************************

                             A D F   E X I T
 NORMAL TERMINATION



 =================
 Timing Statistics
 =================
  
 Total Used :                     CPU=        0.19      System=        0.06     Elapsed=        1.60

 Calls  Section                     ( Mean, Percentage )
 ---------------------------------------------------------------------------------------------------
     3  ><      ................      0.00    0.00             0.00    0.00             0.00    0.30
     1  INIT    ................      0.00    0.00             0.01   16.67             0.61   38.28
     1  GEOMET  ................      0.02   10.53             0.04   66.67             0.64   39.86
     1  INPUTA  ................      0.00    0.00             0.00    0.00             0.00    0.10
     1  MAINSY  ................      0.01    5.26             0.00    0.00             0.03    1.86
     1  SYMFIT  ................      0.00    0.00             0.00    0.00             0.00    0.01
     1  CORORT  ................      0.00    0.00             0.00    0.00             0.00    0.02
     1  SYMORB  ................      0.00    0.00             0.00    0.00             0.00    0.03
     1  FITINT  ................      0.01    5.26             0.00    0.00             0.00    0.26
     1  CLSMAT  ................      0.00    0.00             0.00    0.00             0.00    0.01
     1  ORTHON  ................      0.00    0.00             0.00    0.00             0.00    0.23
     1  ETALOW  ................      0.00    0.00             0.00    0.00             0.00    0.03
     1  GENPT   ................      0.01    5.26             0.00    0.00             0.01    0.61
     1  PTBAS   ................      0.00    0.00             0.00    0.00             0.00    0.13
     8  FOCKY   ................      0.01   47.37             0.00   16.67             0.03   15.10
     8  FOCKTR  ................      0.00    0.00             0.00    0.00             0.00    0.11
     8  FOCKNM  ................      0.00    0.00             0.00    0.00             0.00    0.01
     8  SDIIS   ................      0.00    0.00             0.00    0.00             0.00    0.15
     8  EMERGE  ................      0.00   10.53             0.00    0.00             0.00    1.04
     1  COREPS  ................      0.01    5.26             0.00    0.00             0.01    0.57
     1  POPAN   ................      0.00    0.00             0.00    0.00             0.00    0.10
     1  DEBYE   ................      0.00    0.00             0.00    0.00             0.00    0.03
     1  QMPOT   ................      0.01    5.26             0.00    0.00             0.00    0.17
     1  EXIT PROCEDURE .........      0.01    5.26             0.00    0.00             0.02    0.95


 Currently Open Files (EXIT00)
 ====================

 Unit    Access Format  Status   Type       Ident (file)
 -------------------------------------------------------
   3      SEQ    FORM   TRANSP  NORMAL      LOGFILE
                                          ( logfile )


 Buffered I/O statistics
 =======================
 Memory available:                    268435456
 Number of records fitting in memory:     64527
 Input :   1.3% of                         3830  *4k bytes
 Output:  10.3% of                         1959  *4k bytes
 Records from serial files evicted:           0
                    others evicted:           0
 Hash table lookups:      15695 with          0 conflicts (  0.00%)

 ***************************************************************************************************
 (LOGFILE)
 <Sep28-2015> <15:21:20>  DIRAC 2012.01  RunTime: Sep28-2015 15:21:20  Nodes: 1  Procs: 1
 <Sep28-2015> <15:21:27>  NORMAL TERMINATION
 <Sep28-2015> <15:21:31>  END
 <Sep28-2015> <15:21:31>  ADF 2012.01  RunTime: Sep28-2015 15:21:31  Nodes: 1  Procs: 1
 <Sep28-2015> <15:21:32>  Silver (TZP, 3d frozen)
 <Sep28-2015> <15:21:32>  RunType   : CREATE
 <Sep28-2015> <15:21:32>  Net Charge: 0 (Nuclei minus Electrons)
 <Sep28-2015> <15:21:32>  Symmetry  : ATOM
 <Sep28-2015> <15:21:33>  >>>> CORORT
 <Sep28-2015> <15:21:33>  >>>> FITINT
 <Sep28-2015> <15:21:33>  >>>> CLSMAT
 <Sep28-2015> <15:21:33>  >>>> ORTHON
 <Sep28-2015> <15:21:33>  >>>> GENPT
 <Sep28-2015> <15:21:33>  Acc.Num.Int.=  10.000
 <Sep28-2015> <15:21:33>  Block Length=  94
 <Sep28-2015> <15:21:33>  >>>> PTBAS
 <Sep28-2015> <15:21:33>  >>>> CYCLE
 <Sep28-2015> <15:21:33>    1
 <Sep28-2015> <15:21:33>    2  ErrMat   0.02728591  MaxEl  0.00887264
 <Sep28-2015> <15:21:33>    3  ErrMat   0.05713964  MaxEl -0.01729688
 <Sep28-2015> <15:21:33>    4  ErrMat   0.00229105  MaxEl -0.00078765
 <Sep28-2015> <15:21:33>    5  ErrMat   0.00007667  MaxEl  0.00002781
 <Sep28-2015> <15:21:33>    6  ErrMat   0.00000030  MaxEl -0.00000012
 <Sep28-2015> <15:21:33>    7  ErrMat   0.00000001  MaxEl  0.00000000
 <Sep28-2015> <15:21:33>  SCF converged
 <Sep28-2015> <15:21:33>    8  ErrMat   0.00000000  MaxEl  0.00000000
 <Sep28-2015> <15:21:33>   Solutions with partially occupied orbitals may not be
 <Sep28-2015> <15:21:33>   lowest in energy. You might consider lowering the
 <Sep28-2015> <15:21:33>   symmetry in the input and explicitly specifying integer
 <Sep28-2015> <15:21:33>   occupations. In that case always check that you obtain
 <Sep28-2015> <15:21:33>   an aufbau solution.
 <Sep28-2015> <15:21:33>  >>>> POPAN
 <Sep28-2015> <15:21:33>  >>>> DEBYE
 <Sep28-2015> <15:21:33>  NORMAL TERMINATION
 <Sep28-2015> <15:21:33>  END
Platform-MPI licensed for SCM.


 Parallel Execution: Process Information
 ==============================================================================
 Rank   Node Name                              NodeID   MyNodeRank  NodeMaster
    0   elf06.beocat                              0          0          0
    1   elf06.beocat                              0          1         -1
    2   elf06.beocat                              0          2         -1
    3   elf06.beocat                              0          3         -1
 ==============================================================================


(INPUT FILE)
title Au20 cluster optimization with 4f frozen core - td structure

RELATIVISTIC SCALAR ZORA SAPA

SCF
Converge 1e-8
Iterations 300
END

Solvation
Solv Name =Methanol
END

INTEGRATION 6.0

::Unrestricted
CHARGE -2

XC
GGA Becke Perdew
END

GEOMETRY
::TS
converge E=1e-4 grad=1e-3
smooth aggressive
iterations 100
::frequencies
END

Atoms
Ag         0.00000000     0.00000000    -0.19049400
Ag         0.00000000     0.00000000    -2.74792910
END

Fragments
Ag t21.Ag
End
end input

 *******************************************************************************
 *                                                                             *
 *  -------------------------------------                                      *
 *   Amsterdam Density Functional  (ADF)         2012.01   January 26, 2012    *
 *  -------------------------------------                                      *
 *                                               Build 201201262307            *
 *                                                                             *
 *                                                                             *
 *                              =================                              *
 *                              |               |                              *
 *                              |     A D F     |                              *
 *                              |               |                              *
 *                              =================                              *
 *                                                                             *
 *                                                                             *
 *   Online information and documentation:  http://www.scm.com                 *
 *   E-mail:  support@scm.com   info@scm.com                                   *
 *                                                                             *
 *   Scientific publications using ADF results must be properly referenced     *
 *   See the User Manuals (or the web site) for recommended citations          *
 *   The terms and conditions of the End User License Agreement apply to       *
 *   the use of ADF, http://www.scm.com/Sales/LicAgreement.html                *
 *                                                                             *
 **********************  pentium64_linux / platform_mpi  ***********************
 
 ADF 2012.01  RunTime: Sep28-2015 15:21:34  Nodes: 1  Procs: 4

 Temporary files are created in /tmp/2116366.1.batch.q/kid_0.OsUnGp


Communication costs MPI_COMM_WORLD:    1.787 usec per message,   0.0116 usec per 8-byte item
Communication costs for intra-node:    1.797 usec per message,   0.0114 usec per 8-byte item

 Au20 cluster optimization with 4f frozen core - td structure



 ===========================
 A T T A C H E D   F I L E S
 ===========================
  



 ===============================
 M O D E L   P A R A M E T E R S
 ===============================
  
 DENSITY FUNCTIONAL POTENTIAL (scf)
    LDA:                               VWN                                      
    Gradient Corrections:              Becke88 Perdew86                        == Not Default ==

 SPIN  (restricted / unrestr.)
    Molecule:                          Restricted                               
    Fragments:                         Restricted                               

 OTHER ASPECTS
    Relativistic Corrections:          scalar (ZORA,SAPA)                       *** SPECIAL ***

    Nuclear Charge Density Model:      Point Charge Nuclei                                                                                                                                                                                     
    Core Treatment:                    Frozen Orbital(s)                        

    Electric Field:                    ---                                      

    Hyperfine or Zeeman Interaction:   ---                                      

 SOLVATION
-------------------------------------------

  The Solvent-Excluding surface is calculated

       Division Level for Surface Triangles (NDIV)                  3
       Final Division Level for Triangles (NFDIV)                   1
       Radius of the Solvent (RSOL)                           2.53000 angstr
       Minimum Radius for new sphere (RMINSOLV)               0.50000 angstr
       Overlapping Factor (OFAC)                              0.80000
       New spheres will be assigned to the initials using ASSG1

  Dielectric Constant (EPSL)                                 32.60000

       COSMO equation is solved iteratively-               conjugate-gradient

       Maximun of Iterations for Charges (NCIX)                  1000
       Criterion for Charge convergence (CCNV)                1.0E-10

  COSMO charges included variationally in SCF

       COSMO included at every SCF cycle

  Geometry-dependent empirical factor                         0.00000

  C-Matrix calculated in cspmtx

  In cspmtx, C-Matrix calculated using fitted potential

-------------------------------------------



 Fragment File(s)
 ----------------
 Ag:
         file : t21.Ag
         jobid: ADF 2012.01  RunTime: Sep28-2015 15:21:31  Nodes: 1  Procs: 1
         title: Silver (TZP, 3d frozen)



                                   *********************************************
                                   *  R U N   T Y P E : GEOMETRY OPTIMIZATION  *
                                   *********************************************
  



 ===============
 G E O M E T R Y  ***  Linear Molecule  ***
 ===============
  

 ATOMS
 =====                            X Y Z                    CHARGE                     RADIUS
                                (Angstrom)             Nucl     +Core       At.Mass (Angstrom)
                       --------------------------    ----------------       ------- ----------
    1  Ag              0.0000    0.0000    1.2787     47.00     19.00      106.9051    2.0250
    2  Ag              0.0000    0.0000   -1.2787     47.00     19.00      106.9051    2.0250


 FRAGMENTS
 =========                                     Atoms in this Fragment     Cart. coord.s (Angstrom)
                                               -------------------------------------------------------
    1  Ag                                                1  Ag           0.0000    0.0000    1.2787
    2  Ag                                                2  Ag           0.0000    0.0000   -1.2787


 Interatomic Distance Matrix (Angstrom)
 --------------------------------------

   1)     0.000
   2)     2.557   0.000



 =====================================
 S Y M M E T R Y ,   E L E C T R O N S
 =====================================
  
 Symmetry: D(LIN)

 Irreducible Representations, including subspecies
 -------------------------------------------------
 SIGMA.g
 SIGMA.u
 PI.g:x  PI.g:y
 PI.u:x  PI.u:y
 DELTA.g:x2-y2  DELTA.g:xy
 DELTA.u:x2-y2  DELTA.u:xy
 PHI.g:x3-3xy2  PHI.g:3x2y-y3
 PHI.u:x3-3xy2  PHI.u:3x2y-y3


 Configuration of Valence Electrons
 ==================================
 ( determined in the SCF procedure )

 Total:   40

 Net Charge: -2 (Nuclei minus Electrons)

 Aufbau principle for MO occupations will be applied through SCF cycle no.      30
 Thereafter, the program will assign electrons to MOs that are spatially
 similar to the occupied MOs in a "reference" cycle ("KeepOrbitals").
 The reference cycle is always the PREVIOUS cycle: it will evolve with
 the SCF procedure.
1
 ***************************************************************************************************



                                      ****************************************
                                      *  B U I L D : (Fragments, Functions)  *
                                      ****************************************
  



 =======
 S F O s  ***  (Symmetrized Fragment Orbitals)  ***
 =======
  
 SFOs are linear combinations of (valence) Fragment Orbitals (FOs), such that the SFOs transform as the
 irreducible representations of the (molecular) symmetry group. Each SFO is therefore characterized by
 an irrep of the molecule and by a few (or only one) generating FOs.
 The SFOs constitute a symmetry-adapted basis for the Fock matrix. The MO eigenvector coefficients in
 this basis provide a direct interpretation of the MOs in terms of Frontier Orbital Theory.

 The SFOs are combined with auxiliary Core Functions (CFs) to ensure orthogonalization on the (frozen)
 Core Orbitals (COs). The Core-orthogonalized SFOs (CSFOs) constitute the true Fock basis.

 The FOs, and hence also the (C)SFOs are combinations of the elementary basis functions (BAS). The basis
 functions that participate in the description of the SFOs depend on the irrep. The indices of the
 involved functions are printed below for each irrep.
 (The complete list of primitive basis functions is printed in another section)

 Total nr. of (C)SFOs (summation over all irreps) :    64

 NOTE: a (C)SFO that is defined as a combination of more than one FO is usually NOT normalized.



                                       === SIGMA.g ===
 Nr. of SFOs :   12
 Cartesian basis functions that participate in this irrep (total number =    52) :
      1    51     2    52     3    53     6    56     9    59
     15    65    10    13    60    63    16    66    17    67
     18    68    19    69    20    70    23    73    26    76
     29    79    50   100    35    85    41    91    47    97
     30    33    80    83    36    39    86    89    42    45
     92    95

    SFO  (index         Fragment          Generating    Expansion in Fragment Orbitals
  indx  incl.CFs)   Occup   Orb.Energy   FragmentType  Coeff.   Orbital     on Fragment
 --------------------------------------------------------------------------------------
     1      17      2.000      -3.490 au  Ag            0.71      1 S               1
                        (     -94.963 eV)               0.71      1 S               2
     2      18      1.000      -0.167 au  Ag            0.71      2 S               1
                        (      -4.550 eV)               0.71      2 S               2
     3      19       --         0.049 au  Ag            0.71      3 S               1
                        (       1.341 eV)               0.71      3 S               2
     4      20       --         0.549 au  Ag            0.71      4 S               1
                        (      14.940 eV)               0.71      4 S               2
     5      21       --         4.196 au  Ag            0.71      5 S               1
                        (     114.167 eV)               0.71      5 S               2
     6      22      2.000      -2.166 au  Ag            0.71      1 P:z             1
                        (     -58.952 eV)              -0.71      1 P:z             2
     7      23       --         0.001 au  Ag            0.71      2 P:z             1
                        (       0.034 eV)              -0.71      2 P:z             2
     8      24       --         0.948 au  Ag            0.71      3 P:z             1
                        (      25.801 eV)              -0.71      3 P:z             2
     9      25       --         6.323 au  Ag            0.71      4 P:z             1
                        (     172.071 eV)              -0.71      4 P:z             2
    10      26      2.000      -0.278 au  Ag            0.71      1 D:z2            1
                        (      -7.554 eV)               0.71      1 D:z2            2
    11      27       --         0.294 au  Ag            0.71      2 D:z2            1
                        (       8.004 eV)               0.71      2 D:z2            2
    12      28       --         2.229 au  Ag            0.71      3 D:z2            1
                        (      60.651 eV)               0.71      3 D:z2            2



                                       === SIGMA.u ===
 Nr. of SFOs :   12
 Cartesian basis functions that participate in this irrep (total number =    52) :
      1    51     2    52     3    53     6    56     9    59
     15    65    10    13    60    63    16    66    17    67
     18    68    19    69    20    70    23    73    26    76
     29    79    50   100    35    85    41    91    47    97
     30    33    80    83    36    39    86    89    42    45
     92    95

    SFO  (index         Fragment          Generating    Expansion in Fragment Orbitals
  indx  incl.CFs)   Occup   Orb.Energy   FragmentType  Coeff.   Orbital     on Fragment
 --------------------------------------------------------------------------------------
     1      17      2.000      -3.490 au  Ag            0.71      1 S               1
                        (     -94.963 eV)              -0.71      1 S               2
     2      18      1.000      -0.167 au  Ag            0.71      2 S               1
                        (      -4.550 eV)              -0.71      2 S               2
     3      19       --         0.049 au  Ag            0.71      3 S               1
                        (       1.341 eV)              -0.71      3 S               2
     4      20       --         0.549 au  Ag            0.71      4 S               1
                        (      14.940 eV)              -0.71      4 S               2
     5      21       --         4.196 au  Ag            0.71      5 S               1
                        (     114.167 eV)              -0.71      5 S               2
     6      22      2.000      -2.166 au  Ag            0.71      1 P:z             1
                        (     -58.952 eV)               0.71      1 P:z             2
     7      23       --         0.001 au  Ag            0.71      2 P:z             1
                        (       0.034 eV)               0.71      2 P:z             2
     8      24       --         0.948 au  Ag            0.71      3 P:z             1
                        (      25.801 eV)               0.71      3 P:z             2
     9      25       --         6.323 au  Ag            0.71      4 P:z             1
                        (     172.071 eV)               0.71      4 P:z             2
    10      26      2.000      -0.278 au  Ag            0.71      1 D:z2            1
                        (      -7.554 eV)              -0.71      1 D:z2            2
    11      27       --         0.294 au  Ag            0.71      2 D:z2            1
                        (       8.004 eV)              -0.71      2 D:z2            2
    12      28       --         2.229 au  Ag            0.71      3 D:z2            1
                        (      60.651 eV)              -0.71      3 D:z2            2



                                       === PI.g:x ===
 Nr. of SFOs :    7
 Cartesian basis functions that participate in this irrep (total number =    20) :
      4    54     7    57    12    62    21    71    24    74
     27    77    48    98    32    82    38    88    44    94

    SFO  (index         Fragment          Generating    Expansion in Fragment Orbitals
  indx  incl.CFs)   Occup   Orb.Energy   FragmentType  Coeff.   Orbital     on Fragment
 --------------------------------------------------------------------------------------
     1       7      2.000      -2.166 au  Ag            0.71      1 P:x             1
                        (     -58.952 eV)              -0.71      1 P:x             2
     2       8       --         0.001 au  Ag            0.71      2 P:x             1
                        (       0.034 eV)              -0.71      2 P:x             2
     3       9       --         0.948 au  Ag            0.71      3 P:x             1
                        (      25.801 eV)              -0.71      3 P:x             2
     4      10       --         6.323 au  Ag            0.71      4 P:x             1
                        (     172.071 eV)              -0.71      4 P:x             2
     5      11      2.000      -0.278 au  Ag            0.71      1 D:xz            1
                        (      -7.554 eV)               0.71      1 D:xz            2
     6      12       --         0.294 au  Ag            0.71      2 D:xz            1
                        (       8.004 eV)               0.71      2 D:xz            2
     7      13       --         2.229 au  Ag            0.71      3 D:xz            1
                        (      60.651 eV)               0.71      3 D:xz            2



                                       === PI.g:y ===
 Nr. of SFOs :    7
 Cartesian basis functions that participate in this irrep (total number =    20) :
      5    55     8    58    14    64    22    72    25    75
     28    78    49    99    34    84    40    90    46    96

    SFO  (index         Fragment          Generating    Expansion in Fragment Orbitals
  indx  incl.CFs)   Occup   Orb.Energy   FragmentType  Coeff.   Orbital     on Fragment
 --------------------------------------------------------------------------------------
     1       7      2.000      -2.166 au  Ag            0.71      1 P:y             1
                        (     -58.952 eV)              -0.71      1 P:y             2
     2       8       --         0.001 au  Ag            0.71      2 P:y             1
                        (       0.034 eV)              -0.71      2 P:y             2
     3       9       --         0.948 au  Ag            0.71      3 P:y             1
                        (      25.801 eV)              -0.71      3 P:y             2
     4      10       --         6.323 au  Ag            0.71      4 P:y             1
                        (     172.071 eV)              -0.71      4 P:y             2
     5      11      2.000      -0.278 au  Ag            0.71      1 D:yz            1
                        (      -7.554 eV)               0.71      1 D:yz            2
     6      12       --         0.294 au  Ag            0.71      2 D:yz            1
                        (       8.004 eV)               0.71      2 D:yz            2
     7      13       --         2.229 au  Ag            0.71      3 D:yz            1
                        (      60.651 eV)               0.71      3 D:yz            2



                                       === PI.u:x ===
 Nr. of SFOs :    7
 Cartesian basis functions that participate in this irrep (total number =    20) :
      4    54     7    57    12    62    21    71    24    74
     27    77    48    98    32    82    38    88    44    94

    SFO  (index         Fragment          Generating    Expansion in Fragment Orbitals
  indx  incl.CFs)   Occup   Orb.Energy   FragmentType  Coeff.   Orbital     on Fragment
 --------------------------------------------------------------------------------------
     1       7      2.000      -2.166 au  Ag            0.71      1 P:x             1
                        (     -58.952 eV)               0.71      1 P:x             2
     2       8       --         0.001 au  Ag            0.71      2 P:x             1
                        (       0.034 eV)               0.71      2 P:x             2
     3       9       --         0.948 au  Ag            0.71      3 P:x             1
                        (      25.801 eV)               0.71      3 P:x             2
     4      10       --         6.323 au  Ag            0.71      4 P:x             1
                        (     172.071 eV)               0.71      4 P:x             2
     5      11      2.000      -0.278 au  Ag            0.71      1 D:xz            1
                        (      -7.554 eV)              -0.71      1 D:xz            2
     6      12       --         0.294 au  Ag            0.71      2 D:xz            1
                        (       8.004 eV)              -0.71      2 D:xz            2
     7      13       --         2.229 au  Ag            0.71      3 D:xz            1
                        (      60.651 eV)              -0.71      3 D:xz            2



                                       === PI.u:y ===
 Nr. of SFOs :    7
 Cartesian basis functions that participate in this irrep (total number =    20) :
      5    55     8    58    14    64    22    72    25    75
     28    78    49    99    34    84    40    90    46    96

    SFO  (index         Fragment          Generating    Expansion in Fragment Orbitals
  indx  incl.CFs)   Occup   Orb.Energy   FragmentType  Coeff.   Orbital     on Fragment
 --------------------------------------------------------------------------------------
     1       7      2.000      -2.166 au  Ag            0.71      1 P:y             1
                        (     -58.952 eV)               0.71      1 P:y             2
     2       8       --         0.001 au  Ag            0.71      2 P:y             1
                        (       0.034 eV)               0.71      2 P:y             2
     3       9       --         0.948 au  Ag            0.71      3 P:y             1
                        (      25.801 eV)               0.71      3 P:y             2
     4      10       --         6.323 au  Ag            0.71      4 P:y             1
                        (     172.071 eV)               0.71      4 P:y             2
     5      11      2.000      -0.278 au  Ag            0.71      1 D:yz            1
                        (      -7.554 eV)              -0.71      1 D:yz            2
     6      12       --         0.294 au  Ag            0.71      2 D:yz            1
                        (       8.004 eV)              -0.71      2 D:yz            2
     7      13       --         2.229 au  Ag            0.71      3 D:yz            1
                        (      60.651 eV)              -0.71      3 D:yz            2



                                       === DELTA.g:x2-y2 ===
 Nr. of SFOs :    3
 Cartesian basis functions that participate in this irrep (total number =    16) :
     10    13    60    63    30    33    80    83    36    39
     86    89    42    45    92    95

    SFO  (index         Fragment          Generating    Expansion in Fragment Orbitals
  indx  incl.CFs)   Occup   Orb.Energy   FragmentType  Coeff.   Orbital     on Fragment
 --------------------------------------------------------------------------------------
     1       5      2.000      -0.278 au  Ag            0.71      1 D:x2-y2         1
                        (      -7.554 eV)               0.71      1 D:x2-y2         2
     2       6       --         0.294 au  Ag            0.71      2 D:x2-y2         1
                        (       8.004 eV)               0.71      2 D:x2-y2         2
     3       7       --         2.229 au  Ag            0.71      3 D:x2-y2         1
                        (      60.651 eV)               0.71      3 D:x2-y2         2



                                       === DELTA.g:xy ===
 Nr. of SFOs :    3
 Cartesian basis functions that participate in this irrep (total number =     8) :
     11    61    31    81    37    87    43    93

    SFO  (index         Fragment          Generating    Expansion in Fragment Orbitals
  indx  incl.CFs)   Occup   Orb.Energy   FragmentType  Coeff.   Orbital     on Fragment
 --------------------------------------------------------------------------------------
     1       3      2.000      -0.278 au  Ag            0.71      1 D:xy            1
                        (      -7.554 eV)               0.71      1 D:xy            2
     2       4       --         0.294 au  Ag            0.71      2 D:xy            1
                        (       8.004 eV)               0.71      2 D:xy            2
     3       5       --         2.229 au  Ag            0.71      3 D:xy            1
                        (      60.651 eV)               0.71      3 D:xy            2



                                       === DELTA.u:x2-y2 ===
 Nr. of SFOs :    3
 Cartesian basis functions that participate in this irrep (total number =    16) :
     10    13    60    63    30    33    80    83    36    39
     86    89    42    45    92    95

    SFO  (index         Fragment          Generating    Expansion in Fragment Orbitals
  indx  incl.CFs)   Occup   Orb.Energy   FragmentType  Coeff.   Orbital     on Fragment
 --------------------------------------------------------------------------------------
     1       5      2.000      -0.278 au  Ag            0.71      1 D:x2-y2         1
                        (      -7.554 eV)              -0.71      1 D:x2-y2         2
     2       6       --         0.294 au  Ag            0.71      2 D:x2-y2         1
                        (       8.004 eV)              -0.71      2 D:x2-y2         2
     3       7       --         2.229 au  Ag            0.71      3 D:x2-y2         1
                        (      60.651 eV)              -0.71      3 D:x2-y2         2



                                       === DELTA.u:xy ===
 Nr. of SFOs :    3
 Cartesian basis functions that participate in this irrep (total number =     8) :
     11    61    31    81    37    87    43    93

    SFO  (index         Fragment          Generating    Expansion in Fragment Orbitals
  indx  incl.CFs)   Occup   Orb.Energy   FragmentType  Coeff.   Orbital     on Fragment
 --------------------------------------------------------------------------------------
     1       3      2.000      -0.278 au  Ag            0.71      1 D:xy            1
                        (      -7.554 eV)              -0.71      1 D:xy            2
     2       4       --         0.294 au  Ag            0.71      2 D:xy            1
                        (       8.004 eV)              -0.71      2 D:xy            2
     3       5       --         2.229 au  Ag            0.71      3 D:xy            1
                        (      60.651 eV)              -0.71      3 D:xy            2



 ================================
 (Slater-type)  F U N C T I O N S  ***  (Basis and Fit)  ***
 ================================
  

 Atom Type    1  (Ag)
 ==============

 Valence Basis Sets:  18
 -----------------------
   1 S   30.800000
   2 S   20.300000
   3 S    9.550000
   2 P   21.100000
   3 P   10.100000
   3 D   11.650000
   4 S    6.350000
   4 S    4.050000
   5 S    2.600000
   5 S    1.550000
   5 S    0.950000
   4 P    6.150000
   4 P    4.150000
   4 P    2.900000
   4 D    4.750000
   4 D    2.600000
   4 D    1.380000
   5 P    1.550000

 Frozen Core Shells
 ------------------
    S:  3
    P:  2
    D:  1

 Charge Fitting Sets (for the computation of the Coulomb Potential):  51
 -----------------------------------------------------------------------
   1 S   61.600000
   1 S   36.350000
   2 S   39.760000
   3 S   38.850000
   3 S   27.540000
   4 S   25.820000
   4 S   19.060000
   5 S   17.540000
   5 S   13.330000
   6 S   12.140000
   6 S    9.440000
   7 S    8.550000
   7 S    6.760000
   8 S    6.110000
   8 S    4.900000
   8 S    3.930000
   9 S    3.550000
   9 S    2.880000
   9 S    2.340000
   9 S    1.900000
   2 P   51.900000
   3 P   41.280000
   4 P   32.450000
   5 P   25.520000
   6 P   20.150000
   6 P   13.650000
   7 P   10.840000
   7 P    7.550000
   8 P    6.030000
   8 P    4.290000
   9 P    3.450000
   9 P    2.500000
   3 D   42.450000
   4 D   30.180000
   5 D   21.700000
   6 D   15.790000
   6 D    9.890000
   7 D    7.280000
   7 D    4.710000
   8 D    3.510000
   8 D    2.330000
   4 F   32.800000
   5 F   21.490000
   6 F   14.360000
   6 F    8.280000
   7 F    5.640000
   7 F    3.380000
   5 G   23.300000
   6 G   11.600000
   7 G    6.010000
   7 G    2.760000


 BAS: List of all Elementary Cartesian Basis Functions
 =====================================================

 The numbering in the list below (to the right of the function characteristics) is referred
 to in print-outs of MO eigenvectors and Mulliken populations in the BAS representation
 (as contrasted to the SFO representation).

 Notes:
 1. The functions are characterized by a polynomial prefactor (powers of x,y,z and r) and
    an exponential decay factor alpha.
 2. Since the basis sets are specific for an atom TYPE, the individual functions occur on
    all atoms of that type.
 3. The word 'Core' in the left margin signals that it is a Core Function (CF) : not a
    degree of freedom in the valence set, but only used to ensure orthogonalization of
    the other valence basis functions on the frozen Core Orbitals.


 (power of) X  Y  Z  R     Alpha  on Atom
            ==========     =====     ==========

 Ag                                   1    2
                                  ---------------------------------------------------------------------------
    Core    0  0  0  0    30.800      1   51
    Core    0  0  0  1    20.300      2   52
    Core    0  0  0  2     9.550      3   53
    Core    1  0  0  0    21.100      4   54
    Core    0  1  0  0    21.100      5   55
    Core    0  0  1  0    21.100      6   56
    Core    1  0  0  1    10.100      7   57
    Core    0  1  0  1    10.100      8   58
    Core    0  0  1  1    10.100      9   59
    Core    2  0  0  0    11.650     10   60
    Core    1  1  0  0    11.650     11   61
    Core    1  0  1  0    11.650     12   62
    Core    0  2  0  0    11.650     13   63
    Core    0  1  1  0    11.650     14   64
    Core    0  0  2  0    11.650     15   65
            0  0  0  3     6.350     16   66
            0  0  0  3     4.050     17   67
            0  0  0  4     2.600     18   68
            0  0  0  4     1.550     19   69
            0  0  0  4     0.950     20   70
            1  0  0  2     6.150     21   71
            0  1  0  2     6.150     22   72
            0  0  1  2     6.150     23   73
            1  0  0  2     4.150     24   74
            0  1  0  2     4.150     25   75
            0  0  1  2     4.150     26   76
            1  0  0  2     2.900     27   77
            0  1  0  2     2.900     28   78
            0  0  1  2     2.900     29   79
            2  0  0  1     4.750     30   80
            1  1  0  1     4.750     31   81
            1  0  1  1     4.750     32   82
            0  2  0  1     4.750     33   83
            0  1  1  1     4.750     34   84
            0  0  2  1     4.750     35   85
            2  0  0  1     2.600     36   86
            1  1  0  1     2.600     37   87
            1  0  1  1     2.600     38   88
            0  2  0  1     2.600     39   89
            0  1  1  1     2.600     40   90
            0  0  2  1     2.600     41   91
            2  0  0  1     1.380     42   92
            1  1  0  1     1.380     43   93
            1  0  1  1     1.380     44   94
            0  2  0  1     1.380     45   95
            0  1  1  1     1.380     46   96
            0  0  2  1     1.380     47   97
            1  0  0  3     1.550     48   98
            0  1  0  3     1.550     49   99
            0  0  1  3     1.550     50  100

 Total number of charge fitting functions (nprimf)       460
 Total number of Cartesian basis functions (naos)        100
 Total number of Cartesian core functions  (ncos)         30

           Primitive Internal Coordinates (atoms in internal order)
-------------------------------------------------------------------------------
    index    type      i       j       k       l   value(A,deg)     strength
-------------------------------------------------------------------------------
       1     bnd       1       2       0       0     2.55743510     1.04679508


 Coordinates (Cartesian)
 =======================

     Atom                    bohr                                 angstrom                 Geometric Variables
                   X           Y           Z              X           Y           Z       (0:frozen, *:LT par.)
 --------------------------------------------------------------------------------------------------------------
     1 Ag      0.000000    0.000000    2.416426       0.000000    0.000000    1.278718      1       2       3
     2 Ag      0.000000    0.000000   -2.416426       0.000000    0.000000   -1.278718      4       5       6
 --------------------------------------------------------------------------------------------------------------
1
 ***************************************************************************************************



                                              ***********************
                                              *  T E C H N I C A L  *
                                              ***********************
  



 =============================================================
 P A R A L L E L I Z A T I O N  and  V E C T O R I Z A T I O N
 =============================================================
  
 Nr of parallel processes:                                4
 Maximum vector length in NumInt loops:                 128



 ===============
 I O  vs.  C P U  ***  (store numerical data on disk or recalculate)  ***
 ===============
  
 Basis functions:   recalculate when needed
 Fit functions:     recalculate when needed

 IO buffersize (Mb):                                    256.000000



 ===============================
 G E O M E T R Y   U P D A T E S
 ===============================
  
 Optimization coordinates:                       Delocalized
 Optimization code branch:                       NEW
 Hessian update method:                          BFGS (Broyden-Fletcher-Goldfarb-Shanno)

 Iterative Geometry Improvements:
    Max. nr. of iterations:                        100
    Convergence criteria:
         Change in energy (hartree):                 0.0001000000
         Gradients (au/Angstrom):                    0.0010000000
         Cart/bondlength changes (Angstrom):         0.0100000000
    Max. step to take:
         Trust Radius:                               0.2000000000

 GDIIS (Geometry Direct Inversion in Iteration Space):
    First geometry cycle:                            0
    Max. number expansion vectors:                   5



 =====================
 S C F   U P D A T E S
 =====================
  
 Max. nr. of cycles:                               300
 Convergence criterion:                              0.0000000100
   secondary criterion:                              0.0010000000

 Mix parameter (when DIIS does not apply):           0.2000000000


 DIIS (Direct Inversion in Iteration Space)
    Replace damping when SCF Error is below:         0.5000000000
    Apply anyway after SCF cycle:
                                                     5
    (Max.) nr. of expansion vectors:                10

    Upperbound on expansion coefficients:            5.0000000000
    (when exceeded, IterationSpace is re-built)
    2nd Upperbound on coefficients:                 25.0000000000
    (when exceeded, simple damping will be used)



 =================
 P R E C I S I O N  ***  (General: NumInt, NeglectFunctionTails, ...)  ***
 =================
  

 NumInt:           Target precision:                 6.0000000000
 -------           Initial precision:                6.0000000000
                   Min. precision (optimization):    6.0000000000

 Neglect Functions:          Basis functions:        0.1000000000E-07
 ------------------          Fit functions:          0.1000000000E-07



 ===========================
 L I N E A R   S C A L I N G
 ===========================
  

 Cut-off radii density fit:                        0.1000000000E-09
 Overlap cut-off criterion AO matrix elements:     0.1000000000E-07
 Cut-offs for Coulomb potential and fitted density:0.1000000000E-09
 Cut-off criterion for Coulomb multipole terms:    0.1000000000E-09
 Progressive Convergence parameter:                 0.000000000    
1
 ***************************************************************************************************



                                            ***************************
                                            *  C O M P U T A T I O N  *
                                            ***************************
  

 Number of elements of the density matrix on this node (used, total):      1275      5050



 ====================================================
 Numerical Integration : Voronoi Polyhedra (Te Velde)  ***  (parameters, tests)  ***
 ====================================================
  
 General Accuracy Parameter :                          6.00

 Symmetry used in the points section:  D(LIN)


 Summary of the Symmetry Unique Points:
 --------------------------------------
    Nr. of used Symmetry Operators                     2

    Points in the Atomic Spheres                     221
    Points in the Atomic Polyhedra                   250
    Points in the Outer Region                       181
    ----------------------------------------------------
    Total                                            652

    Sum of Weights                                110782.870964

 Total nr. of points:      13040
 Nr. of blocks:              120
 Block length:               109
 Nr. of dummy points:         40


 Test of Precision of the Numerical Integration Grid
 ===================================================

 Integral of the Total Core Density:                  56.00000010242472
 Relative Error:                                       1.829E-09

 About initial set of coordinates
 --------------------------------
 Number of spheres               =       2
 Number of TOTAL coord.          =       2

 about final set of coordinates
 ------------------------------
 gepol%ncor,gepol%nptsaf,npsurf=       3      60     120


 -------------------------------------------
  COSMO surface
  Area             =          300.073
  Volume           =          438.839
  Number of Points =          120
 -------------------------------------------



 =====
 S C F
 =====
  

 CYCLE    1

 WARNING: DIIS procedure will be reset
 orbitals (Q,E):
 ---------------
 SIGMA.g :1...12     ( 2.00    -3.4935)  ( 2.00    -2.1756)  ( 2.00    -0.3263)  ( 2.00    -0.2133)
                     ( 0.00    -0.0195)  ( 0.00     0.0540)  ( 0.00     0.3742)  ( 0.00     0.5785)
                     ( 0.00     1.1045)  ( 0.00     2.2434)  ( 0.00     4.1605)  ( 0.00     6.3734)
 SIGMA.u :1...12     ( 2.00    -3.4929)  ( 2.00    -2.1693)  ( 2.00    -0.2600)  ( 2.00    -0.1228)
                     ( 0.00     0.0664)  ( 0.00     0.2164)  ( 0.00     0.5360)  ( 0.00     0.7726)
                     ( 0.00     1.1773)  ( 0.00     2.5217)  ( 0.00     4.3853)  ( 0.00     6.8641)
 PI.g :1...7         ( 4.00    -2.1696)  ( 4.00    -0.2659)  ( 0.00     0.0509)  ( 0.00     0.4835)
                     ( 0.00     1.0198)  ( 0.00     2.3913)  ( 0.00     6.4325)
 PI.u :1...7         ( 4.00    -2.1702)  ( 4.00    -0.3055)  ( 0.00    -0.0364)  ( 0.00     0.3009)
                     ( 0.00     0.9347)  ( 0.00     2.2351)  ( 0.00     6.2801)
 DELTA.g :1...3      ( 4.00    -0.2856)  ( 0.00     0.2477)  ( 0.00     2.1935)
 DELTA.u :1...3      ( 4.00    -0.2779)  ( 0.00     0.3532)  ( 0.00     2.2818)

 COSMO charges converged: Iteration #    6 Conv  8.764000E-12
 The total uncorrected surface charge :      1.84159646
 cosmo_calcen: solen (Hartrees) =   -0.341122

 Solvation energy (screening term,uncorrected) =   -214.057095 kcal/mol

 Solvation energy (dispersion and cavitation terms) =      0.550929 kcal/mol
 Solvation Energy Contributions (Hartrees)
          esola         esolb         esolc
     0.34112170    0.00000000   -0.68224339
 esol   -0.34112170

 CYCLE    2
 d-Pmat  mean:  0.52E-02
 imax=     70:  0.42E-01
 orbitals (Q,E):
 ---------------
 SIGMA.g :1...5      ( 2.00    -3.4610)  ( 2.00    -2.1427)  ( 2.00    -0.2951)  ( 2.00    -0.1956)
                     ( 0.00    -0.0087)
 SIGMA.u :1...5      ( 2.00    -3.4604)  ( 2.00    -2.1365)  ( 2.00    -0.2305)  ( 2.00    -0.1111)
                     ( 0.00     0.0725)
 PI.g :1...3         ( 4.00    -2.1375)  ( 4.00    -0.2358)  ( 0.00     0.0613)
 PI.u :1...3         ( 4.00    -2.1381)  ( 4.00    -0.2757)  ( 0.00    -0.0249)
 DELTA.g :1...2      ( 4.00    -0.2568)  ( 0.00     0.2586)
 DELTA.u :1...2      ( 4.00    -0.2487)  ( 0.00     0.3633)

 COSMO charges converged: Iteration #    6 Conv  9.039537E-12
 The total uncorrected surface charge :      1.81923648
 cosmo_calcen: solen (Hartrees) =   -0.331986

 Solvation energy (screening term,uncorrected) =   -208.324202 kcal/mol

 Solvation energy (dispersion and cavitation terms) =      0.550929 kcal/mol
 Solvation Energy Contributions (Hartrees)
[...]
 <Sep28-2015> <15:21:33>  END
 <Sep28-2015> <15:21:34>  ADF 2012.01  RunTime: Sep28-2015 15:21:34  Nodes: 1  Procs: 4
 <Sep28-2015> <15:21:35>  Au20 cluster optimization with 4f frozen core - td structure
 <Sep28-2015> <15:21:35>  RunType   : GEOMETRY OPTIMIZATION
 <Sep28-2015> <15:21:35>  Net Charge: -2 (Nuclei minus Electrons)
 <Sep28-2015> <15:21:35>  Symmetry  : D(LIN)
 <Sep28-2015> <15:21:35>  >>>> FRAGM
  Coordinates in Geometry Cycle 1
    Atom         X           Y           Z   (Angstrom)
    1.Ag        0.000000    0.000000    1.278718
    2.Ag        0.000000    0.000000   -1.278718
 <Sep28-2015> <15:21:35>  >>>> CORORT
 <Sep28-2015> <15:21:35>  >>>> FITINT
 <Sep28-2015> <15:21:35>  >>>> CLSMAT
 <Sep28-2015> <15:21:36>  >>>> ORTHON
 <Sep28-2015> <15:21:36>  >>>> GENPT
 <Sep28-2015> <15:21:36>  Acc.Num.Int.=   6.000
 <Sep28-2015> <15:21:36>  Block Length= 109
 <Sep28-2015> <15:21:36>  >>>> PTBAS
 <Sep28-2015> <15:21:36>  >>>> SURPTS
 <Sep28-2015> <15:21:36>  >>>> CYCLE
 <Sep28-2015> <15:21:37>    1
 <Sep28-2015> <15:21:37>    2  ErrMat   0.23610425  MaxEl -0.08679322
 <Sep28-2015> <15:21:37>    3  ErrMat   0.13126064  MaxEl -0.05125952
 <Sep28-2015> <15:21:37>    4  ErrMat   0.12199083  MaxEl  0.03300888
 <Sep28-2015> <15:21:37>    5  ErrMat   0.00480934  MaxEl  0.00117444
 <Sep28-2015> <15:21:37>    6  ErrMat   0.00334999  MaxEl  0.00073101
 <Sep28-2015> <15:21:37>  SCF converged
 <Sep28-2015> <15:21:37>    7  ErrMat   0.00007855  MaxEl -0.00002352
 <Sep28-2015> <15:21:37>  >>>> TOTEN
 <Sep28-2015> <15:21:37>  >>>> POPAN
 <Sep28-2015> <15:21:37>  >>>> DEBYE
 <Sep28-2015> <15:21:37>  >>>> AMETS
 <Sep28-2015> <15:21:37>  >>>> ENGRAD
 <Sep28-2015> <15:21:38>  current energy                               -0.27949806 Hartree
 <Sep28-2015> <15:21:38>  energy change                      -0.27949806     0.00010000    F
 <Sep28-2015> <15:21:38>  constrained gradient max            0.05023763     0.00100000    F
 <Sep28-2015> <15:21:38>  constrained gradient rms            0.02900471     0.00066667    F
 <Sep28-2015> <15:21:38>  gradient max                        0.05023763
 <Sep28-2015> <15:21:38>  gradient rms                        0.02900471
 <Sep28-2015> <15:21:38>  cart. step max                      0.01679886     0.01000000    F
 <Sep28-2015> <15:21:38>  cart. step rms                      0.00969883     0.00666667    F
  Coordinates in Geometry Cycle 2
    Atom         X           Y           Z   (Angstrom)
    1.Ag        0.000000    0.000000    1.295516
    2.Ag        0.000000    0.000000   -1.295516
 <Sep28-2015> <15:21:38>  >>>> CORORT
 <Sep28-2015> <15:21:38>  >>>> FITINT
 <Sep28-2015> <15:21:38>  >>>> CLSMAT
 <Sep28-2015> <15:21:38>  >>>> ORTHON
 <Sep28-2015> <15:21:38>  >>>> GENPT
 <Sep28-2015> <15:21:38>  Acc.Num.Int.=   6.000
 <Sep28-2015> <15:21:38>  Block Length= 109
 <Sep28-2015> <15:21:38>  >>>> PTBAS
 <Sep28-2015> <15:21:38>  >>>> SURPTS
 <Sep28-2015> <15:21:38>  >>>> CYCLE
 <Sep28-2015> <15:21:38>    1
 <Sep28-2015> <15:21:38>    2  ErrMat   0.28589138  MaxEl  0.15124627
 <Sep28-2015> <15:21:38>    3  ErrMat   0.13365786  MaxEl  0.09663739
 <Sep28-2015> <15:21:38>    4  ErrMat   0.08597846  MaxEl -0.02954186
 <Sep28-2015> <15:21:38>    5  ErrMat   0.03366861  MaxEl -0.00792049
 <Sep28-2015> <15:21:38>    6  ErrMat   0.00375996  MaxEl  0.00081225
 <Sep28-2015> <15:21:38>    7  ErrMat   0.00120683  MaxEl -0.00036423
 <Sep28-2015> <15:21:38>    8  ErrMat   0.00005577  MaxEl  0.00001582
 <Sep28-2015> <15:21:38>    9  ErrMat   0.00000929  MaxEl  0.00000270
 <Sep28-2015> <15:21:38>   10  ErrMat   0.00000056  MaxEl  0.00000011
 <Sep28-2015> <15:21:38>  SCF converged
 <Sep28-2015> <15:21:38>   11  ErrMat   0.00000002  MaxEl  0.00000000
 <Sep28-2015> <15:21:38>  >>>> TOTEN
 <Sep28-2015> <15:21:39>  >>>> POPAN
 <Sep28-2015> <15:21:39>  >>>> DEBYE
 <Sep28-2015> <15:21:39>  >>>> AMETS
 <Sep28-2015> <15:21:39>  >>>> ENGRAD
 <Sep28-2015> <15:21:39>  current energy                               -0.28102524 Hartree
 <Sep28-2015> <15:21:39>  energy change                      -0.00152718     0.00010000    F
 <Sep28-2015> <15:21:39>  constrained gradient max            0.04167947     0.00100000    F
 <Sep28-2015> <15:21:39>  constrained gradient rms            0.02406366     0.00066667    F
 <Sep28-2015> <15:21:39>  gradient max                        0.04167947
 <Sep28-2015> <15:21:39>  gradient rms                        0.02406366
 <Sep28-2015> <15:21:39>  cart. step max                      0.05291772     0.01000000    F
 <Sep28-2015> <15:21:39>  cart. step rms                      0.03055206     0.00666667    F
  Coordinates in Geometry Cycle 3
    Atom         X           Y           Z   (Angstrom)
    1.Ag        0.000000    0.000000    1.348434
    2.Ag        0.000000    0.000000   -1.348434
 <Sep28-2015> <15:21:39>  >>>> CORORT
 <Sep28-2015> <15:21:39>  >>>> FITINT
 <Sep28-2015> <15:21:39>  >>>> CLSMAT
 <Sep28-2015> <15:21:39>  >>>> ORTHON
 <Sep28-2015> <15:21:39>  >>>> GENPT
 <Sep28-2015> <15:21:39>  Acc.Num.Int.=   6.000
 <Sep28-2015> <15:21:39>  Block Length= 128
 <Sep28-2015> <15:21:39>  >>>> PTBAS
 <Sep28-2015> <15:21:39>  >>>> SURPTS
 <Sep28-2015> <15:21:39>  >>>> CYCLE
 <Sep28-2015> <15:21:39>    1
 <Sep28-2015> <15:21:39>    2  ErrMat   0.27096018  MaxEl  0.14817684
 <Sep28-2015> <15:21:39>    3  ErrMat   0.13098185  MaxEl  0.09438782
 <Sep28-2015> <15:21:39>    4  ErrMat   0.08084935  MaxEl -0.02791386
 <Sep28-2015> <15:21:39>    5  ErrMat   0.03350343  MaxEl -0.00781459
 <Sep28-2015> <15:21:39>    6  ErrMat   0.00412065  MaxEl  0.00084940
 <Sep28-2015> <15:21:39>    7  ErrMat   0.00118456  MaxEl -0.00036288
 <Sep28-2015> <15:21:39>    8  ErrMat   0.00005819  MaxEl  0.00001678
 <Sep28-2015> <15:21:39>    9  ErrMat   0.00000818  MaxEl  0.00000237
 <Sep28-2015> <15:21:39>   10  ErrMat   0.00000031  MaxEl -0.00000007
 <Sep28-2015> <15:21:39>  SCF converged
 <Sep28-2015> <15:21:39>   11  ErrMat   0.00000002  MaxEl  0.00000000
 <Sep28-2015> <15:21:39>  >>>> TOTEN
 <Sep28-2015> <15:21:39>  >>>> POPAN
 <Sep28-2015> <15:21:39>  >>>> DEBYE
 <Sep28-2015> <15:21:39>  >>>> AMETS
 <Sep28-2015> <15:21:39>  >>>> ENGRAD
 <Sep28-2015> <15:21:40>  current energy                               -0.28420522 Hartree
 <Sep28-2015> <15:21:40>  energy change                      -0.00317998     0.00010000    F
 <Sep28-2015> <15:21:40>  constrained gradient max            0.02207497     0.00100000    F
 <Sep28-2015> <15:21:40>  constrained gradient rms            0.01274499     0.00066667    F
 <Sep28-2015> <15:21:40>  gradient max                        0.02207497
 <Sep28-2015> <15:21:40>  gradient rms                        0.01274499
 <Sep28-2015> <15:21:40>  cart. step max                      0.05958616     0.01000000    F
 <Sep28-2015> <15:21:40>  cart. step rms                      0.03440208     0.00666667    F
  Coordinates in Geometry Cycle 4
    Atom         X           Y           Z   (Angstrom)
    1.Ag        0.000000    0.000000    1.408020
    2.Ag        0.000000    0.000000   -1.408020
 <Sep28-2015> <15:21:40>  >>>> CORORT
 <Sep28-2015> <15:21:40>  >>>> FITINT
 <Sep28-2015> <15:21:40>  >>>> CLSMAT
 <Sep28-2015> <15:21:40>  >>>> ORTHON
 <Sep28-2015> <15:21:40>  >>>> GENPT
 <Sep28-2015> <15:21:40>  Acc.Num.Int.=   6.000
 <Sep28-2015> <15:21:40>  Block Length= 108
 <Sep28-2015> <15:21:40>  >>>> PTBAS
 <Sep28-2015> <15:21:40>  >>>> SURPTS
 <Sep28-2015> <15:21:40>  >>>> CYCLE
 <Sep28-2015> <15:21:40>    1
 <Sep28-2015> <15:21:40>    2  ErrMat   0.26580385  MaxEl  0.14635012
 <Sep28-2015> <15:21:40>    3  ErrMat   0.12900379  MaxEl  0.09265427
 <Sep28-2015> <15:21:40>    4  ErrMat   0.07827923  MaxEl -0.02697284
 <Sep28-2015> <15:21:40>    5  ErrMat   0.03310516  MaxEl -0.00766444
 <Sep28-2015> <15:21:40>    6  ErrMat   0.00492575  MaxEl  0.00100050
 <Sep28-2015> <15:21:40>    7  ErrMat   0.00113913  MaxEl -0.00034849
 <Sep28-2015> <15:21:40>    8  ErrMat   0.00005800  MaxEl  0.00001777
 <Sep28-2015> <15:21:40>    9  ErrMat   0.00000455  MaxEl  0.00000128
 <Sep28-2015> <15:21:40>   10  ErrMat   0.00000016  MaxEl -0.00000004
 <Sep28-2015> <15:21:40>  SCF converged
 <Sep28-2015> <15:21:40>   11  ErrMat   0.00000001  MaxEl  0.00000000
 <Sep28-2015> <15:21:40>  >>>> TOTEN
 <Sep28-2015> <15:21:40>  >>>> POPAN
 <Sep28-2015> <15:21:40>  >>>> DEBYE
 <Sep28-2015> <15:21:40>  >>>> AMETS
 <Sep28-2015> <15:21:40>  >>>> ENGRAD
 <Sep28-2015> <15:21:40>  current energy                               -0.28593665 Hartree
 <Sep28-2015> <15:21:40>  energy change                      -0.00173142     0.00010000    F
 <Sep28-2015> <15:21:40>  constrained gradient max            0.00916370     0.00100000    F
 <Sep28-2015> <15:21:40>  constrained gradient rms            0.00529067     0.00066667    F
 <Sep28-2015> <15:21:40>  gradient max                        0.00916370
 <Sep28-2015> <15:21:40>  gradient rms                        0.00529067
 <Sep28-2015> <15:21:40>  cart. step max                      0.04229095     0.01000000    F
 <Sep28-2015> <15:21:40>  cart. step rms                      0.02441669     0.00666667    F
  Coordinates in Geometry Cycle 5
    Atom         X           Y           Z   (Angstrom)
    1.Ag        0.000000    0.000000    1.450311
    2.Ag        0.000000    0.000000   -1.450311
 <Sep28-2015> <15:21:40>  >>>> CORORT
 <Sep28-2015> <15:21:41>  >>>> FITINT
 <Sep28-2015> <15:21:41>  >>>> CLSMAT
 <Sep28-2015> <15:21:41>  >>>> ORTHON
 <Sep28-2015> <15:21:41>  >>>> GENPT
 <Sep28-2015> <15:21:41>  Acc.Num.Int.=   6.000
 <Sep28-2015> <15:21:41>  Block Length= 108
 <Sep28-2015> <15:21:41>  >>>> PTBAS
 <Sep28-2015> <15:21:41>  >>>> SURPTS
 <Sep28-2015> <15:21:41>  >>>> CYCLE
 <Sep28-2015> <15:21:41>    1
 <Sep28-2015> <15:21:41>    2  ErrMat   0.26834254  MaxEl  0.14589941
 <Sep28-2015> <15:21:41>    3  ErrMat   0.12832589  MaxEl  0.09181003
 <Sep28-2015> <15:21:41>    4  ErrMat   0.07831417  MaxEl -0.02682278
 <Sep28-2015> <15:21:41>    5  ErrMat   0.03251339  MaxEl -0.00750749
 <Sep28-2015> <15:21:41>    6  ErrMat   0.00574901  MaxEl  0.00112989
 <Sep28-2015> <15:21:41>    7  ErrMat   0.00107076  MaxEl  0.00032742
 <Sep28-2015> <15:21:41>    8  ErrMat   0.00005538  MaxEl  0.00001824
 <Sep28-2015> <15:21:41>    9  ErrMat   0.00000301  MaxEl  0.00000069
 <Sep28-2015> <15:21:41>  SCF converged
 <Sep28-2015> <15:21:41>   10  ErrMat   0.00000014  MaxEl  0.00000004
 <Sep28-2015> <15:21:41>  >>>> TOTEN
 <Sep28-2015> <15:21:41>  >>>> POPAN
 <Sep28-2015> <15:21:41>  >>>> DEBYE
 <Sep28-2015> <15:21:41>  >>>> AMETS
 <Sep28-2015> <15:21:41>  >>>> ENGRAD
 <Sep28-2015> <15:21:41>  current energy                               -0.28654003 Hartree
 <Sep28-2015> <15:21:41>  energy change                      -0.00060338     0.00010000    F
 <Sep28-2015> <15:21:41>  constrained gradient max            0.00342727     0.00100000    F
 <Sep28-2015> <15:21:41>  constrained gradient rms            0.00197874     0.00066667    F
 <Sep28-2015> <15:21:41>  gradient max                        0.00342727
 <Sep28-2015> <15:21:41>  gradient rms                        0.00197874
 <Sep28-2015> <15:21:41>  cart. step max                      0.02526705     0.01000000    F
 <Sep28-2015> <15:21:41>  cart. step rms                      0.01458794     0.00666667    F
  Coordinates in Geometry Cycle 6
    Atom         X           Y           Z   (Angstrom)
    1.Ag        0.000000    0.000000    1.475578
    2.Ag        0.000000    0.000000   -1.475578
 <Sep28-2015> <15:21:41>  >>>> CORORT
 <Sep28-2015> <15:21:41>  >>>> FITINT
 <Sep28-2015> <15:21:41>  >>>> CLSMAT
 <Sep28-2015> <15:21:42>  >>>> ORTHON
 <Sep28-2015> <15:21:42>  >>>> GENPT
 <Sep28-2015> <15:21:42>  Acc.Num.Int.=   6.000
 <Sep28-2015> <15:21:42>  Block Length= 108
 <Sep28-2015> <15:21:42>  >>>> PTBAS
 <Sep28-2015> <15:21:42>  >>>> SURPTS
 <Sep28-2015> <15:21:42>  >>>> CYCLE
 <Sep28-2015> <15:21:42>    1
 <Sep28-2015> <15:21:42>    2  ErrMat   0.27172210  MaxEl  0.14592299
 <Sep28-2015> <15:21:42>    3  ErrMat   0.12837593  MaxEl  0.09147370
 <Sep28-2015> <15:21:42>    4  ErrMat   0.07901102  MaxEl -0.02687949
 <Sep28-2015> <15:21:42>    5  ErrMat   0.03200496  MaxEl -0.00738600
 <Sep28-2015> <15:21:42>    6  ErrMat   0.00640044  MaxEl  0.00121084
 <Sep28-2015> <15:21:42>    7  ErrMat   0.00101567  MaxEl  0.00032056
 <Sep28-2015> <15:21:42>    8  ErrMat   0.00005363  MaxEl  0.00001842
 <Sep28-2015> <15:21:42>    9  ErrMat   0.00000541  MaxEl  0.00000147
 <Sep28-2015> <15:21:42>   10  ErrMat   0.00000015  MaxEl -0.00000005
 <Sep28-2015> <15:21:42>  SCF converged
 <Sep28-2015> <15:21:42>   11  ErrMat   0.00000001  MaxEl  0.00000000
 <Sep28-2015> <15:21:42>  >>>> TOTEN
 <Sep28-2015> <15:21:42>  >>>> POPAN
 <Sep28-2015> <15:21:42>  >>>> DEBYE
 <Sep28-2015> <15:21:42>  >>>> AMETS
 <Sep28-2015> <15:21:42>  >>>> ENGRAD
 <Sep28-2015> <15:21:42>  current energy                               -0.28671472 Hartree
 <Sep28-2015> <15:21:42>  energy change                      -0.00017469     0.00010000    F
 <Sep28-2015> <15:21:42>  constrained gradient max            0.00120928     0.00100000    F
 <Sep28-2015> <15:21:42>  constrained gradient rms            0.00069818     0.00066667    F
 <Sep28-2015> <15:21:42>  gradient max                        0.00120928
 <Sep28-2015> <15:21:42>  gradient rms                        0.00069818
 <Sep28-2015> <15:21:42>  cart. step max                      0.01377598     0.01000000    F
 <Sep28-2015> <15:21:42>  cart. step rms                      0.00795357     0.00666667    F
  Coordinates in Geometry Cycle 7
    Atom         X           Y           Z   (Angstrom)
    1.Ag        0.000000    0.000000    1.489354
    2.Ag        0.000000    0.000000   -1.489354
 <Sep28-2015> <15:21:42>  >>>> CORORT
 <Sep28-2015> <15:21:42>  >>>> FITINT
 <Sep28-2015> <15:21:42>  >>>> CLSMAT
 <Sep28-2015> <15:21:43>  >>>> ORTHON
 <Sep28-2015> <15:21:43>  >>>> GENPT
 <Sep28-2015> <15:21:43>  Acc.Num.Int.=   6.000
 <Sep28-2015> <15:21:43>  Block Length= 108
 <Sep28-2015> <15:21:43>  >>>> PTBAS
 <Sep28-2015> <15:21:43>  >>>> SURPTS
 <Sep28-2015> <15:21:43>  >>>> CYCLE
 <Sep28-2015> <15:21:43>    1
 <Sep28-2015> <15:21:43>    2  ErrMat   0.27428846  MaxEl  0.14609786
 <Sep28-2015> <15:21:43>    3  ErrMat   0.12875615  MaxEl  0.09145573
 <Sep28-2015> <15:21:43>    4  ErrMat   0.07977274  MaxEl -0.02694355
 <Sep28-2015> <15:21:43>    5  ErrMat   0.03173184  MaxEl -0.00735539
 <Sep28-2015> <15:21:43>    6  ErrMat   0.00666336  MaxEl  0.00127685
 <Sep28-2015> <15:21:43>    7  ErrMat   0.00095762  MaxEl  0.00030945
 <Sep28-2015> <15:21:43>    8  ErrMat   0.00005181  MaxEl  0.00001815
 <Sep28-2015> <15:21:43>    9  ErrMat   0.00000727  MaxEl  0.00000216
 <Sep28-2015> <15:21:43>   10  ErrMat   0.00000023  MaxEl -0.00000009
 <Sep28-2015> <15:21:43>  SCF converged
 <Sep28-2015> <15:21:43>   11  ErrMat   0.00000002  MaxEl -0.00000001
 <Sep28-2015> <15:21:43>  >>>> TOTEN
 <Sep28-2015> <15:21:43>  >>>> POPAN
 <Sep28-2015> <15:21:43>  >>>> DEBYE
 <Sep28-2015> <15:21:43>  >>>> AMETS
 <Sep28-2015> <15:21:43>  >>>> ENGRAD
 <Sep28-2015> <15:21:43>  current energy                               -0.28702266 Hartree
 <Sep28-2015> <15:21:43>  energy change                      -0.00030795     0.00010000    F
 <Sep28-2015> <15:21:43>  constrained gradient max            0.00030032     0.00100000    T
 <Sep28-2015> <15:21:43>  constrained gradient rms            0.00017339     0.00066667    T
 <Sep28-2015> <15:21:43>  gradient max                        0.00030032
 <Sep28-2015> <15:21:43>  gradient rms                        0.00017339
 <Sep28-2015> <15:21:43>  cart. step max                      0.00455153     0.01000000    T
 <Sep28-2015> <15:21:43>  cart. step rms                      0.00262783     0.00666667    T
  Coordinates in Geometry Cycle 8
    Atom         X           Y           Z   (Angstrom)
    1.Ag        0.000000    0.000000    1.493906
    2.Ag        0.000000    0.000000   -1.493906
 <Sep28-2015> <15:21:43>  >>>> CORORT
 <Sep28-2015> <15:21:43>  >>>> FITINT
 <Sep28-2015> <15:21:43>  >>>> CLSMAT
 <Sep28-2015> <15:21:43>  >>>> ORTHON
 <Sep28-2015> <15:21:43>  >>>> GENPT
 <Sep28-2015> <15:21:43>  Acc.Num.Int.=   6.000
 <Sep28-2015> <15:21:43>  Block Length= 108
 <Sep28-2015> <15:21:43>  >>>> PTBAS
 <Sep28-2015> <15:21:43>  >>>> SURPTS
 <Sep28-2015> <15:21:43>  >>>> CYCLE
 <Sep28-2015> <15:21:43>    1
 <Sep28-2015> <15:21:44>    2  ErrMat   0.27766881  MaxEl  0.14659221
 <Sep28-2015> <15:21:44>    3  ErrMat   0.12958522  MaxEl  0.09162437
 <Sep28-2015> <15:21:44>    4  ErrMat   0.08110531  MaxEl -0.02718950
 <Sep28-2015> <15:21:44>    5  ErrMat   0.03139693  MaxEl -0.00728475
 <Sep28-2015> <15:21:44>    6  ErrMat   0.00716727  MaxEl  0.00138827
 <Sep28-2015> <15:21:44>    7  ErrMat   0.00093348  MaxEl  0.00030560
 <Sep28-2015> <15:21:44>    8  ErrMat   0.00005127  MaxEl  0.00001821
 <Sep28-2015> <15:21:44>    9  ErrMat   0.00000821  MaxEl  0.00000255
 <Sep28-2015> <15:21:44>   10  ErrMat   0.00000023  MaxEl -0.00000010
 <Sep28-2015> <15:21:44>  SCF converged
 <Sep28-2015> <15:21:44>   11  ErrMat   0.00000002  MaxEl -0.00000001
 <Sep28-2015> <15:21:44>  >>>> TOTEN
 <Sep28-2015> <15:21:44>  >>>> POPAN
 <Sep28-2015> <15:21:44>  >>>> DEBYE
 <Sep28-2015> <15:21:44>  >>>> AMETS
 <Sep28-2015> <15:21:44>  >>>> ENGRAD
 <Sep28-2015> <15:21:44>  current energy                               -0.28702412 Hartree
 <Sep28-2015> <15:21:44>  energy change                      -0.00000146     0.00010000    T
 <Sep28-2015> <15:21:44>  constrained gradient max            0.00001621     0.00100000    T
 <Sep28-2015> <15:21:44>  constrained gradient rms            0.00000936     0.00066667    T
 <Sep28-2015> <15:21:44>  gradient max                        0.00001621
 <Sep28-2015> <15:21:44>  gradient rms                        0.00000936
 <Sep28-2015> <15:21:44>  cart. step max                      0.00025963     0.01000000    T
 <Sep28-2015> <15:21:44>  cart. step rms                      0.00014990     0.00666667    T
 <Sep28-2015> <15:21:44>  GEOMETRY CONVERGED
 <Sep28-2015> <15:21:44>  Calculating Energy Terms for Final Geometry
  Coordinates in Geometry Cycle 8
    Atom         X           Y           Z   (Angstrom)
    1.Ag        0.000000    0.000000    1.493906
    2.Ag        0.000000    0.000000   -1.493906
 <Sep28-2015> <15:21:44>  >>>> CORORT
 <Sep28-2015> <15:21:44>  >>>> FITINT
 <Sep28-2015> <15:21:44>  >>>> CLSMAT
 <Sep28-2015> <15:21:44>  >>>> ORTHON
 <Sep28-2015> <15:21:44>  >>>> GENPT
 <Sep28-2015> <15:21:44>  Acc.Num.Int.=   6.000
 <Sep28-2015> <15:21:44>  Block Length= 108
 <Sep28-2015> <15:21:44>  >>>> PTBAS
 <Sep28-2015> <15:21:44>  >>>> SURPTS
 <Sep28-2015> <15:21:44>  >>>> CYCLE
 <Sep28-2015> <15:21:44>    1
 <Sep28-2015> <15:21:46>    2  ErrMat   0.27881539  MaxEl  0.14676135
 <Sep28-2015> <15:21:50>    3  ErrMat   0.12974373  MaxEl  0.09169350
 <Sep28-2015> <15:21:54>    4  ErrMat   0.08141543  MaxEl -0.02727435
 <Sep28-2015> <15:21:56>    5  ErrMat   0.03134615  MaxEl -0.00727453
 <Sep28-2015> <15:21:56>    6  ErrMat   0.00722396  MaxEl  0.00140010
 <Sep28-2015> <15:21:56>    7  ErrMat   0.00093174  MaxEl  0.00030493
 <Sep28-2015> <15:21:57>    8  ErrMat   0.00005108  MaxEl  0.00001818
 <Sep28-2015> <15:21:57>    9  ErrMat   0.00000829  MaxEl  0.00000259
 <Sep28-2015> <15:21:57>   10  ErrMat   0.00000023  MaxEl -0.00000009
 <Sep28-2015> <15:21:57>   11  ErrMat   0.00000002  MaxEl -0.00000001
 <Sep28-2015> <15:21:57>  SCF converged
 <Sep28-2015> <15:21:57>   12  ErrMat   0.00000000  MaxEl  0.00000000
 <Sep28-2015> <15:21:57>  >>>> TOTEN
 <Sep28-2015> <15:21:57>  >>>> POPAN
 <Sep28-2015> <15:21:57>  >>>> DEBYE
 <Sep28-2015> <15:21:57>  >>>> AMETS
 <Sep28-2015> <15:21:57>  >>>> POPUL
 <Sep28-2015> <15:21:57>   Bond Energy          -0.28702412 a.u.
 <Sep28-2015> <15:21:57>   Bond Energy          -7.81032378 eV
 <Sep28-2015> <15:21:57>   Bond Energy        -180.11       kcal/mol
 <Sep28-2015> <15:21:57>  NORMAL TERMINATION
 <Sep28-2015> <15:21:57>  END
