
 *******************************************************************************
 *                                                                             *
 *  -------------------------------------                                      *
 *   Amsterdam Density Functional  (ADF)         2012.01   January 26, 2012    *
 *  -------------------------------------                                      *
 *                                               Build 201201262206            *
 *                                                                             *
 *                                                                             *
 *                            =====================                            *
 *                            |                   |                            *
 *                            |     D I R A C     |                            *
 *                            |                   |                            *
 *                            =====================                            *
 *                                                                             *
 *                                                                             *
 *   Online information and documentation:  http://www.scm.com                 *
 *   E-mail:  support@scm.com   info@scm.com                                   *
 *                                                                             *
 *   Scientific publications using ADF results must be properly referenced     *
 *   See the User Manuals (or the web site) for recommended citations          *
 *   The terms and conditions of the End User License Agreement apply to       *
 *   the use of ADF, http://www.scm.com/Sales/LicAgreement.html                *
 *                                                                             *
 *****************************  pentium64_linux  *******************************
 
 DIRAC 2012.01  RunTime: Sep02-2015 10:48:07  Nodes: 1  Procs: 1

 Temporary files are created in /tmp/2102179.1.batch.q/kid_0.lu26os

1
 HYDROGEN ATOM RELATIVISTIC, Point Nuc, A and c from libtc   
 N J RN H ZN XION ANUC CLIGHT
 5000    1100.00000000197.36710137  1.00000000  0.00000000    1.007825  0.1370360E+03
  PH   PHI     EPS        DEL        DELRVR
  0.30  0.30     2500.00  0.00001000  0.00001000
 IDIRC  NC1  NDEBU NPRIN  IPUN IRCOR IWCOR
   1   300     0     0     0     0     0
   XALPHA      XLATTER      RNUC
  0.70000000  0.00000000  0.00000000 Point Charge
   XN   XL   XJ      XE          XZ      XDELL
  1.0  0.0  0.5      -1.000       1.000     0.00000
 ICORP=  0  NPCL=  0  DEMP=0.00  PEPS=0.000000
 R(1)=  0.1000000E-08 D=  0.1005080E+01 RNUC=  0.0000000E+00
 converged at cycle   32  DENSITY AVERAGING    0.2400
  MAXIMUM ERROR IN R.V(R) IS   0.79874357E-05
 Q,EY,EV,EZ,ESUM,ETOT,RHO  0.100000E+01 -0.266614E+00 -0.619969E+00 -0.910779E+00 -0.203940E+00 -0.415998E+00  0.337036E-17


 DIRAC CALCULATION
1                    HYDROGEN ATOM RELATIVISTIC, Point Nuc, A and c from libtc


 EXCHANGE COEFFICIENT=  0.7000000           TAIL CORRECTION=  0.           NUCLEAR RADIUS=  0.000E+00
0                       ORBITAL    N    L    J     ELECTRONS     EIGENVALUE                DELTA OF EIGENV.

                          1S1/2  1.0  0.0  0.5     1.000       -0.2039397E+00                 0.2720093E-06


                                        NUCLEAR CHARGE=    1.000000
                            INTEGRAL OF CHARGE DENSITY=    1.000000
                           SUM OF THE ORBITAL ENERGIES=     -0.2039
                                          TOTAL ENERGY=     -0.4160
                                        KINETIC ENERGY=      0.4160
                             NUCLEAR ATTRACTION ENERGY=     -0.9108
                             ELECTRON REPULSION ENERGY=      0.2787
                                       EXCHANGE ENERGY=     -0.2000

 *******************************************************************************

                             D I R A C   E X I T
 NORMAL TERMINATION



 =================
 Timing Statistics
 =================
  
 Total Used :                     CPU=        0.07      System=        0.04     Elapsed=        0.13

 Calls  Section                     ( Mean, Percentage )
 ---------------------------------------------------------------------------------------------------
     2  ><      ................      0.00    0.00             0.00    0.00             0.00    0.01
     1  EXIT PROCEDURE .........      0.07  100.00             0.04  100.00             0.13   99.99


 Currently Open Files (EXIT00)
 ====================

 Unit    Access Format  Status   Type       Ident (file)
 -------------------------------------------------------
   3      SEQ    FORM   TRANSP  NORMAL      LOGFILE
                                          ( logfile )


 Buffered I/O statistics
 =======================
 Memory available:                    268435456
 Number of records fitting in memory:     64527
 Input : 100.0% of                            0  *4k bytes
 Output: 100.0% of                            0  *4k bytes
 Records from serial files evicted:           0
                    others evicted:           0
 Hash table lookups:          0 with          0 conflicts (100.00%)
(INPUT FILE)
Create H   file=/homes/cmaikens/adf2012.01/atomicdata/ZORA/TZP/H
XC
GGA Becke Perdew
End
relativistic ZORA
Corepotentials t12.rel
End Input

 *******************************************************************************
 *                                                                             *
 *  -------------------------------------                                      *
 *   Amsterdam Density Functional  (ADF)         2012.01   January 26, 2012    *
 *  -------------------------------------                                      *
 *                                               Build 201201262307            *
 *                                                                             *
 *                                                                             *
 *                              =================                              *
 *                              |               |                              *
 *                              |     A D F     |                              *
 *                              |               |                              *
 *                              =================                              *
 *                                                                             *
 *                                                                             *
 *   Online information and documentation:  http://www.scm.com                 *
 *   E-mail:  support@scm.com   info@scm.com                                   *
 *                                                                             *
 *   Scientific publications using ADF results must be properly referenced     *
 *   See the User Manuals (or the web site) for recommended citations          *
 *   The terms and conditions of the End User License Agreement apply to       *
 *   the use of ADF, http://www.scm.com/Sales/LicAgreement.html                *
 *                                                                             *
 **********************  pentium64_linux / platform_mpi  ***********************
 
 ADF 2012.01  RunTime: Sep02-2015 10:48:09  Nodes: 1  Procs: 1

 Temporary files are created in /tmp/2102179.1.batch.q/kid_0.HtKcLU

 Hydrogen (TZP)



 ===========================
 A T T A C H E D   F I L E S
 ===========================
  
 CREATE - Data File:    /homes/cmaikens/adf2012.01/atomicdata/ZORA/TZP/H
                        Hydrogen (TZP)
 Core Potentials:
         file : t12.rel



 ===============================
 M O D E L   P A R A M E T E R S
 ===============================
  
 DENSITY FUNCTIONAL POTENTIAL (scf)
    LDA:                               VWN                                      
    Gradient Corrections:              Becke88 Perdew86                        == Not Default ==

 SPIN  (restricted / unrestr.)
    Molecule:                          Restricted                               

 OTHER ASPECTS
    Relativistic Corrections:          scalar (ZORA,SAPA)                       *** SPECIAL ***

    Nuclear Charge Density Model:      Point Charge Nuclei                                                                                                                                                                                     
    Core Treatment:                    Frozen Orbital(s)                        

    Electric Field:                    ---                                      

    Hyperfine or Zeeman Interaction:   ---                                      



 =====================================
 S Y M M E T R Y ,   E L E C T R O N S
 =====================================
  
 Symmetry: ATOM

 Irreducible Representations, including subspecies
 -------------------------------------------------
 S
 P:x  P:y  P:z
 D:z2  D:x2-y2  D:xy  D:xz  D:yz
 F:z3  F:z  F:xyz  F:z2x  F:z2y  F:x  F:y


 Configuration of Valence Electrons
 ==================================

          Occupation Numbers
          -------------------------------------------------
 S        1
 P        0
 D        0
 F        0
          -------------------------------------------------

 Total:   1

 Net Charge: 0 (Nuclei minus Electrons)

 Preset values for MO occupations will be applied through SCF cycle no. 1000000
 Thereafter, the program will assign electrons to MOs that are spatially
 similar to the occupied MOs in a "reference" cycle ("KeepOrbitals").
 The reference cycle is always the PREVIOUS cycle: it will evolve with
 the SCF procedure.



 ================================
 (Slater-type)  F U N C T I O N S  ***  (Basis and Fit)  ***
 ================================
  

 Atom Type    1  (H)
 ==============

 Valence Basis Sets:   4
 -----------------------
   1 S    0.690000
   1 S    0.920000
   1 S    1.580000
   2 P    1.250000

 Charge Fitting Sets (for the computation of the Coulomb Potential):  11
 -----------------------------------------------------------------------
   1 S    3.160000
   1 S    2.090000
   1 S    1.380000
   2 S    1.500000
   2 P    4.000000
   2 P    2.650000
   2 P    1.750000
   3 D    4.000000
   3 D    2.500000
   4 F    3.000000
   5 G    4.000000


 BAS: List of all Elementary Cartesian Basis Functions
 =====================================================

 The numbering in the list below (to the right of the function characteristics) is referred
 to in print-outs of MO eigenvectors and Mulliken populations in the BAS representation
 (as contrasted to the SFO representation).

 Notes:
 1. The functions are characterized by a polynomial prefactor (powers of x,y,z and r) and
    an exponential decay factor alpha.
 2. Since the basis sets are specific for an atom TYPE, the individual functions occur on
    all atoms of that type.
 3. The word 'Core' in the left margin signals that it is a Core Function (CF) : not a
    degree of freedom in the valence set, but only used to ensure orthogonalization of
    the other valence basis functions on the frozen Core Orbitals.


 (power of) X  Y  Z  R     Alpha  on Atom
            ==========     =====     ==========

 H                                    1
                                  ---------------------------------------------------------------------------
            0  0  0  0     0.690      1
            0  0  0  0     0.920      2
            0  0  0  0     1.580      3
            1  0  0  0     1.250      4
            0  1  0  0     1.250      5
            0  0  1  0     1.250      6

 Total number of charge fitting functions (nprimf)        50
 Total number of Cartesian basis functions (naos)          6
 Total number of Cartesian core functions  (ncos)          0



 BAS: List of all Elementary Cartesian Basis Functions
 =====================================================

 The numbering in the list below (to the right of the function characteristics) is referred
 to in print-outs of MO eigenvectors and Mulliken populations in the BAS representation
 (as contrasted to the SFO representation).

 Notes:
 1. The functions are characterized by a polynomial prefactor (powers of x,y,z and r) and
    an exponential decay factor alpha.
 2. Since the basis sets are specific for an atom TYPE, the individual functions occur on
    all atoms of that type.
 3. The word 'Core' in the left margin signals that it is a Core Function (CF) : not a
    degree of freedom in the valence set, but only used to ensure orthogonalization of
    the other valence basis functions on the frozen Core Orbitals.


 (power of) X  Y  Z  R     Alpha  on Atom
            ==========     =====     ==========

 H                                    1
                                  ---------------------------------------------------------------------------
            0  0  0  0     0.690      1
            0  0  0  0     0.920      2
            0  0  0  0     1.580      3
            1  0  0  0     1.250      4
            0  1  0  0     1.250      5
            0  0  1  0     1.250      6
1
 ***************************************************************************************************



                                              ***********************
                                              *  T E C H N I C A L  *
                                              ***********************
  



 =============================================================
 P A R A L L E L I Z A T I O N  and  V E C T O R I Z A T I O N
 =============================================================
  
 Nr of parallel processes:                                1
 Maximum vector length in NumInt loops:                 128



 ===============
 I O  vs.  C P U  ***  (store numerical data on disk or recalculate)  ***
 ===============
  
 Basis functions:   recalculate when needed
 Fit functions:     recalculate when needed

 IO buffersize (Mb):                                    256.000000



 =====================
 S C F   U P D A T E S
 =====================
  
 Max. nr. of cycles:                               100
 Convergence criterion:                              0.0000000100
   secondary criterion:                              0.0000000100

 Mix parameter (when DIIS does not apply):           0.2000000000
 Special mix parameter for the first cycle:          1.0000000000


 DIIS (Direct Inversion in Iteration Space)
    Replace damping when SCF Error is below:         0.5000000000
    Apply anyway after SCF cycle:
                                                     5
    (Max.) nr. of expansion vectors:                10

    Upperbound on expansion coefficients:            5.0000000000
    (when exceeded, IterationSpace is re-built)
    2nd Upperbound on coefficients:                 25.0000000000
    (when exceeded, simple damping will be used)
 Automatic ElectronSmearing (in case of problematic SCF convergence) disabled



 =================
 P R E C I S I O N  ***  (General: NumInt, NeglectFunctionTails, ...)  ***
 =================
  

 NumInt:           Target precision:                10.0000000000
 -------           Initial precision:               10.0000000000
                   Min. precision (optimization):   10.0000000000

 Neglect Functions:          Basis functions:        0.1000000000E-11
 ------------------          Fit functions:          0.1000000000E-11



 ===========================
 L I N E A R   S C A L I N G
 ===========================
  

 Cut-off radii density fit:                        0.1000000000E-13
 Overlap cut-off criterion AO matrix elements:     0.1000000000E-11
 Cut-offs for Coulomb potential and fitted density:0.1000000000E-13
 Cut-off criterion for Coulomb multipole terms:    0.1000000000E-13
 Progressive Convergence parameter:                 0.000000000    
1
 ***************************************************************************************************



                                            ***************************
                                            *  C O M P U T A T I O N  *
                                            ***************************
  

 Number of elements of the density matrix on this node (used, total):        21        21



 ====================================================
 Numerical Integration : Voronoi Polyhedra (Te Velde)  ***  (parameters, tests)  ***
 ====================================================
  
 General Accuracy Parameter :                         10.00

 Symmetry used in the points section:  ATOM  


 Summary of the Symmetry Unique Points:
 --------------------------------------
    Nr. of used Symmetry Operators                     1

    Points in the Atomic Spheres                      35
    Points in the Atomic Polyhedra                     0
    Points in the Outer Region                         0
    ----------------------------------------------------
    Total                                             35

    Sum of Weights                                 33854.777883

 Total nr. of points:         35
 Nr. of blocks:                1
 Block length:                35
 Nr. of dummy points:          0


 Test of Precision of the Numerical Integration Grid
 ===================================================

 Integral of the Total Core Density:                   0.00000000000000



 =====
 S C F
 =====
  

 CYCLE    1
 orbitals (Q,E):
 ---------------
 S :1...3            ( 1.00    -0.2497)  ( 0.00     0.0898)  ( 0.00     1.5086)
 P :1...1            ( 0.00     0.3944)

 CYCLE    2
 d-Pmat  mean:  0.67E-02
 imax=      2: -0.32E-01
 orbitals (Q,E):
 ---------------
 S :1...2            ( 1.00    -0.2425)  ( 0.00     0.0938)
 P :1...1            ( 0.00     0.4004)

 CYCLE    3
 d-Pmat  mean:  0.92E-03
 imax=      2:  0.43E-02
 orbitals (Q,E):
 ---------------
 S :1...2            ( 1.00    -0.2436)  ( 0.00     0.0931)
 P :1...1            ( 0.00     0.3994)

 CYCLE    4
 d-Pmat  mean:  0.23E-05
 imax=      2:  0.70E-05
 orbitals (Q,E):
 ---------------
 S :1...2            ( 1.00    -0.2436)  ( 0.00     0.0931)
 P :1...1            ( 0.00     0.3994)

 CYCLE    5
 d-Pmat  mean:  0.33E-07
 imax=      2:  0.16E-06
 orbitals (Q,E):
 ---------------
 S :1...2            ( 1.00    -0.2436)  ( 0.00     0.0931)
 P :1...1            ( 0.00     0.3994)

 SCF CONVERGED

 CYCLE    6
1
 ***************************************************************************************************



                                                *******************
                                                *  R E S U L T S  *
                                                *******************
  
 *** Setting up for NEW gradients in focky
 *** Using FIT density in focky
 XCFun disabled
 XCFun disabled
 XCFun disabled

 Scaled ZORA Orbital Energies, per Irrep and Spin:
 =================================================
                        Occup              E (au)              E (eV)       Diff (eV) with prev. cycle
                        -----      --------------------        ------       --------------------------
 S
               1        1.000     -0.24363084608098E+00        -6.630               7.44E-12
               2        0.000      0.93092450943701E-01         2.533
               3        0.000      0.15150131697268E+01        41.226
 P
               1        0.000      0.39943374979256E+00        10.869


 Partially Occupied:
               1 S                -0.24363084608098E+00
  
 LUMO :        2 S                 0.93092450943701E-01
  


 Orbital Energies, all Irreps
 ========================================

 Irrep        no.  (spin)   Occup              E (au)                E (eV)
 ---------------------------------------------------------------------------
 S             1             1.00       -0.24363084608098E+00        -6.6295
 S             2             0.00        0.93092450943701E-01         2.5332
 P             1             0.00        0.39943374979256E+00        10.8691
 S             3             0.00        0.15150131697268E+01        41.2256


 Scaled ZORA Orbital Energies of the Core Orbitals:
 ==================================================

 (Note that the atoms are grouped by atomtype, see the labels, and may hence NOT be in input order)

 AtomType  Orbital  Atom                   E (au)                        E (eV)
 --------  -------  ----           --------------------        ----------------



 =======================================
 M U L L I K E N   P O P U L A T I O N S
 =======================================
  
 The survey below gives for each atom:
 a) the total charge (Z minus electrons)
 b) the net spin polarization (nr of electrons spin-A minus spin-B)
 c) for each spin the atomic electron valence density (integrated) per L-value.

 Atom              Charge    Spin density          S         P         D         F
 ----              ------    ------------       ------    ------    ------    ------
 1 H               0.0000                       1.0000    0.0000    0.0000    0.0000

 Populations of individual BAS functions
 ----------------------------------------
 1 H            0.1849  0.7118  0.1033  0.0000  0.0000  0.0000

 Gross Charges per Atom (Z minus electrons)
 ==========================================
             0.0000
 Net Total:  0.00000000


 Atom-Atom Population Matrix (off-diagonal elements not doubled)
 ===============================================================

     1 :     1.0000



 =============
 Dipole Moment  ***  (Debye)  ***
 =============
  
 Vector   :         0.00000000      0.00000000      0.00000000
 Magnitude:         0.00000000

 This molecular dipole moment is calculated with analytic integration



 =========================================
 Quadrupole Moment (Buckingham convention)  ***  (a.u.)  ***
 =========================================
  
      quad-xx        quad-xy        quad-xz        quad-yy        quad-yz        quad-zz
      0.00000000     0.00000000     0.00000000     0.00000000     0.00000000     0.00000000

 This molecular quadrupole moment is calculated with analytic integration



 ===============================================================================
 Electrostatic potential at the Nuclei due to valence electrons and other nuclei
 ===============================================================================
  
         Atom                  Potential
         ----                  ---------
     1)   H                   0.94545402
 
 
 ========================
 No memory problems found
 ========================
 
 Maximum number of active allocate calls:         308
 
 *******************************************************************************

                             A D F   E X I T
 NORMAL TERMINATION



 =================
 Timing Statistics
 =================
  
 Total Used :                     CPU=        0.10      System=        0.10     Elapsed=        2.05

 Calls  Section                     ( Mean, Percentage )
 ---------------------------------------------------------------------------------------------------
     3  ><      ................      0.00    0.00             0.00   10.00             0.00    0.24
     1  INIT    ................      0.00    0.00             0.01   10.00             0.08    4.02
     1  GEOMET  ................      0.01   10.00             0.05   50.00             0.14    6.91
     1  INPUTA  ................      0.00    0.00             0.00    0.00             0.00    0.07
     1  MAINSY  ................      0.00    0.00             0.00    0.00             0.03    1.65
     1  SYMFIT  ................      0.00    0.00             0.00    0.00             0.00    0.01
     1  CORORT  ................      0.00    0.00             0.00    0.00             0.00    0.01
     1  SYMORB  ................      0.00    0.00             0.00    0.00             0.00    0.02
     1  FITINT  ................      0.01   10.00             0.00    0.00             0.00    0.13
     1  CLSMAT  ................      0.00    0.00             0.00    0.00             0.00    0.01
     1  ORTHON  ................      0.00    0.00             0.00    0.00             0.00    0.23
     1  ETALOW  ................      0.00    0.00             0.00    0.00             0.00    0.02
     1  GENPT   ................      0.00    0.00             0.00    0.00             0.00    0.21
     1  PTBAS   ................      0.00    0.00             0.00    0.00             0.00    0.08
     6  FOCKY   ................      0.01   40.00             0.01   30.00             0.29   84.07
     6  FOCKTR  ................      0.00    0.00             0.00    0.00             0.00    0.06
     6  FOCKNM  ................      0.00    0.00             0.00    0.00             0.00    0.01
     6  SDIIS   ................      0.00    0.00             0.00    0.00             0.00    0.09
     6  EMERGE  ................      0.00   10.00             0.00    0.00             0.00    0.44
     1  COREPS  ................      0.00    0.00             0.00    0.00             0.00    0.17
     1  POPAN   ................      0.00    0.00             0.00    0.00             0.00    0.11
     1  DEBYE   ................      0.00    0.00             0.00    0.00             0.00    0.02
     1  QMPOT   ................      0.01   10.00             0.00    0.00             0.00    0.13
     1  EXIT PROCEDURE .........      0.02   20.00             0.00    0.00             0.03    1.28


 Currently Open Files (EXIT00)
 ====================

 Unit    Access Format  Status   Type       Ident (file)
 -------------------------------------------------------
   3      SEQ    FORM   TRANSP  NORMAL      LOGFILE
                                          ( logfile )


 Buffered I/O statistics
 =======================
 Memory available:                    268435456
 Number of records fitting in memory:     64527
 Input :   2.1% of                         2027  *4k bytes
 Output:  12.8% of                         1349  *4k bytes
 Records from serial files evicted:           0
                    others evicted:           0
 Hash table lookups:       9130 with          0 conflicts (  0.00%)

 ***************************************************************************************************
 (LOGFILE)
 <Sep02-2015> <10:48:07>  DIRAC 2012.01  RunTime: Sep02-2015 10:48:07  Nodes: 1  Procs: 1
 <Sep02-2015> <10:48:07>  NORMAL TERMINATION
 <Sep02-2015> <10:48:07>  END
 <Sep02-2015> <10:48:09>  ADF 2012.01  RunTime: Sep02-2015 10:48:09  Nodes: 1  Procs: 1
 <Sep02-2015> <10:48:09>  Hydrogen (TZP)
 <Sep02-2015> <10:48:09>  RunType   : CREATE
 <Sep02-2015> <10:48:09>  Net Charge: 0 (Nuclei minus Electrons)
 <Sep02-2015> <10:48:09>  Symmetry  : ATOM
 <Sep02-2015> <10:48:09>  >>>> CORORT
 <Sep02-2015> <10:48:09>  >>>> FITINT
 <Sep02-2015> <10:48:09>  >>>> CLSMAT
 <Sep02-2015> <10:48:09>  >>>> ORTHON
 <Sep02-2015> <10:48:09>  >>>> GENPT
 <Sep02-2015> <10:48:09>  Acc.Num.Int.=  10.000
 <Sep02-2015> <10:48:09>  Block Length=  35
 <Sep02-2015> <10:48:09>  >>>> PTBAS
 <Sep02-2015> <10:48:09>  >>>> CYCLE
 <Sep02-2015> <10:48:09>    1
 <Sep02-2015> <10:48:09>    2  ErrMat   0.00258453  MaxEl -0.00253172
 <Sep02-2015> <10:48:09>    3  ErrMat   0.00050241  MaxEl  0.00048214
 <Sep02-2015> <10:48:09>    4  ErrMat   0.00000638  MaxEl  0.00000533
 <Sep02-2015> <10:48:09>    5  ErrMat   0.00000001  MaxEl -0.00000001
 <Sep02-2015> <10:48:09>  SCF converged
 <Sep02-2015> <10:48:11>    6  ErrMat   0.00000000  MaxEl  0.00000000
 <Sep02-2015> <10:48:11>   Solutions with partially occupied orbitals may not be
 <Sep02-2015> <10:48:11>   lowest in energy. You might consider lowering the
 <Sep02-2015> <10:48:11>   symmetry in the input and explicitly specifying integer
 <Sep02-2015> <10:48:11>   occupations. In that case always check that you obtain
 <Sep02-2015> <10:48:11>   an aufbau solution.
 <Sep02-2015> <10:48:11>  >>>> POPAN
 <Sep02-2015> <10:48:11>  >>>> DEBYE
 <Sep02-2015> <10:48:11>  NORMAL TERMINATION
 <Sep02-2015> <10:48:11>  END

 *******************************************************************************
 *                                                                             *
 *  -------------------------------------                                      *
 *   Amsterdam Density Functional  (ADF)         2012.01   January 26, 2012    *
 *  -------------------------------------                                      *
 *                                               Build 201201262206            *
 *                                                                             *
 *                                                                             *
 *                            =====================                            *
 *                            |                   |                            *
 *                            |     D I R A C     |                            *
 *                            |                   |                            *
 *                            =====================                            *
 *                                                                             *
 *                                                                             *
 *   Online information and documentation:  http://www.scm.com                 *
 *   E-mail:  support@scm.com   info@scm.com                                   *
 *                                                                             *
 *   Scientific publications using ADF results must be properly referenced     *
 *   See the User Manuals (or the web site) for recommended citations          *
 *   The terms and conditions of the End User License Agreement apply to       *
 *   the use of ADF, http://www.scm.com/Sales/LicAgreement.html                *
 *                                                                             *
 *****************************  pentium64_linux  *******************************
 
 DIRAC 2012.01  RunTime: Sep02-2015 10:48:11  Nodes: 1  Procs: 1

 Temporary files are created in /tmp/2102179.1.batch.q/kid_0.qJPnfj

1
 SILVER ATOM 3d CORE RELATIVISTIC, Point Nuc, A and c from li
 N J RN H ZN XION ANUC CLIGHT
 5000   15100.00000000197.36710137 47.00000000  0.00000000  106.905093  0.1370360E+03
  PH   PHI     EPS        DEL        DELRVR
  0.30  0.30     2500.00  0.00001000  0.00001000
 IDIRC  NC1  NDEBU NPRIN  IPUN IRCOR IWCOR
   1   300     0     0     0     0     9
   XALPHA      XLATTER      RNUC
  0.70000000  0.00000000  0.00000000 Point Charge
   XN   XL   XJ      XE          XZ      XDELL
  1.0  0.0  0.5   -1500.000       2.000     0.00000
  2.0  0.0  0.5    -325.000       2.000     0.00000
  2.0  1.0  0.5    -325.000       2.000     0.00000
  2.0  1.0  1.5    -325.000       4.000     0.00000
  3.0  0.0  0.5     -70.000       2.000     0.00000
  3.0  1.0  0.5     -70.000       2.000     0.00000
  3.0  1.0  1.5     -70.000       4.000     0.00000
  3.0  2.0  1.5     -60.000       4.000     0.00000
  3.0  2.0  2.5     -60.000       6.000     0.00000
  4.0  0.0  0.5     -10.000       2.000     0.00000
  4.0  1.0  0.5     -10.000       2.000     0.00000
  4.0  1.0  1.5     -10.000       4.000     0.00000
  4.0  2.0  1.5      -1.000       4.000     0.00000
  4.0  2.0  2.5      -1.000       6.000     0.00000
  5.0  0.0  0.5      -0.500       1.000     0.00000
 ICORP=  0  NPCL=  0  DEMP=0.00  PEPS=0.000000
 R(1)=  0.1000000E-08 D=  0.1005080E+01 RNUC=  0.0000000E+00
 converged at cycle   37  DENSITY AVERAGING    0.1536
  MAXIMUM ERROR IN R.V(R) IS   0.73266205E-05
 Q,EY,EV,EZ,ESUM,ETOT,RHO  0.470000E+02 -0.196167E+03 -0.876390E+04 -0.128962E+05 -0.319969E+04 -0.531488E+04  0.734901E-11


 DIRAC CALCULATION
1                    SILVER ATOM 3d CORE RELATIVISTIC, Point Nuc, A and c from libtc


 EXCHANGE COEFFICIENT=  0.7000000           TAIL CORRECTION=  0.           NUCLEAR RADIUS=  0.000E+00
0                       ORBITAL    N    L    J     ELECTRONS     EIGENVALUE                DELTA OF EIGENV.

                          1S1/2  1.0  0.0  0.5     2.000       -0.9298445E+03                 0.2273091E-04
                          2S1/2  2.0  0.0  0.5     2.000       -0.1369628E+03                 0.3639498E-04
                          2P1/2  2.0  1.0  0.5     2.000       -0.1273849E+03                 0.3693015E-04
                          2P3/2  2.0  1.0  1.5     4.000       -0.1209397E+03                 0.3702741E-04
                          3S1/2  3.0  0.0  0.5     2.000       -0.2508734E+02                 0.1716513E-04
                          3P1/2  3.0  1.0  0.5     2.000       -0.2126622E+02                 0.1799299E-04
                          3P3/2  3.0  1.0  1.5     4.000       -0.2012758E+02                 0.1718269E-04
                          3D3/2  3.0  2.0  1.5     4.000       -0.1333155E+02                 0.2053383E-04
                          3D5/2  3.0  2.0  2.5     6.000       -0.1310170E+02                 0.2025648E-04
                          4S1/2  4.0  0.0  0.5     2.000       -0.3467319E+01                 0.6825765E-06
                          4P1/2  4.0  1.0  0.5     2.000       -0.2259901E+01                 0.4193829E-06
                          4P3/2  4.0  1.0  1.5     4.000       -0.2069785E+01                 0.2705207E-06
                          4D3/2  4.0  2.0  1.5     4.000       -0.2640772E+00                 0.3034642E-06
                          4D5/2  4.0  2.0  2.5     6.000       -0.2433402E+00                 0.3285318E-06
                          5S1/2  5.0  0.0  0.5     1.000       -0.1450750E+00                 0.2931479E-06


                                        NUCLEAR CHARGE=   47.000000
                            INTEGRAL OF CHARGE DENSITY=   47.000000
                           SUM OF THE ORBITAL ENERGIES=  -3199.6921
                                          TOTAL ENERGY=  -5314.8812
                                        KINETIC ENERGY=   5564.2055
                             NUCLEAR ATTRACTION ENERGY= -12896.1922
                             ELECTRON REPULSION ENERGY=   2164.2310
                                       EXCHANGE ENERGY=   -147.1255

 *******************************************************************************

                             D I R A C   E X I T
 NORMAL TERMINATION



 =================
 Timing Statistics
 =================
  
 Total Used :                     CPU=        0.41      System=        0.05     Elapsed=        0.46

 Calls  Section                     ( Mean, Percentage )
 ---------------------------------------------------------------------------------------------------
     2  ><      ................      0.00    0.00             0.00    0.00             0.00    0.00
     1  EXIT PROCEDURE .........      0.41  100.00             0.05  100.00             0.46  100.00


 Currently Open Files (EXIT00)
 ====================

 Unit    Access Format  Status   Type       Ident (file)
 -------------------------------------------------------
   3      SEQ    FORM   TRANSP  NORMAL      LOGFILE
                                          ( logfile )


 Buffered I/O statistics
 =======================
 Memory available:                    268435456
 Number of records fitting in memory:     64527
 Input : 100.0% of                            0  *4k bytes
 Output: 100.0% of                            0  *4k bytes
 Records from serial files evicted:           0
                    others evicted:           0
 Hash table lookups:          0 with          0 conflicts (100.00%)
(INPUT FILE)
Create Ag   file=/homes/cmaikens/adf2012.01/atomicdata/ZORA/TZP/Ag.3d
XC
GGA Becke Perdew
End
relativistic ZORA
Corepotentials t12.rel
End Input

 *******************************************************************************
 *                                                                             *
 *  -------------------------------------                                      *
 *   Amsterdam Density Functional  (ADF)         2012.01   January 26, 2012    *
 *  -------------------------------------                                      *
 *                                               Build 201201262307            *
 *                                                                             *
 *                                                                             *
 *                              =================                              *
 *                              |               |                              *
 *                              |     A D F     |                              *
 *                              |               |                              *
 *                              =================                              *
 *                                                                             *
 *                                                                             *
 *   Online information and documentation:  http://www.scm.com                 *
 *   E-mail:  support@scm.com   info@scm.com                                   *
 *                                                                             *
 *   Scientific publications using ADF results must be properly referenced     *
 *   See the User Manuals (or the web site) for recommended citations          *
 *   The terms and conditions of the End User License Agreement apply to       *
 *   the use of ADF, http://www.scm.com/Sales/LicAgreement.html                *
 *                                                                             *
 **********************  pentium64_linux / platform_mpi  ***********************
 
 ADF 2012.01  RunTime: Sep02-2015 10:48:15  Nodes: 1  Procs: 1

 Temporary files are created in /tmp/2102179.1.batch.q/kid_0.3GJCK0

 Silver (TZP, 3d frozen)



 ===========================
 A T T A C H E D   F I L E S
 ===========================
  
 CREATE - Data File:    /homes/cmaikens/adf2012.01/atomicdata/ZORA/TZP/Ag.3d
                        Silver (TZP, 3d frozen)
 Core Potentials:
         file : t12.rel



 ===============================
 M O D E L   P A R A M E T E R S
 ===============================
  
 DENSITY FUNCTIONAL POTENTIAL (scf)
    LDA:                               VWN                                      
    Gradient Corrections:              Becke88 Perdew86                        == Not Default ==

 SPIN  (restricted / unrestr.)
    Molecule:                          Restricted                               

 OTHER ASPECTS
    Relativistic Corrections:          scalar (ZORA,SAPA)                       *** SPECIAL ***

    Nuclear Charge Density Model:      Point Charge Nuclei                                                                                                                                                                                     
    Core Treatment:                    Frozen Orbital(s)                        

    Electric Field:                    ---                                      

    Hyperfine or Zeeman Interaction:   ---                                      



 =====================================
 S Y M M E T R Y ,   E L E C T R O N S
 =====================================
  
 Symmetry: ATOM

 Irreducible Representations, including subspecies
 -------------------------------------------------
 S
 P:x  P:y  P:z
 D:z2  D:x2-y2  D:xy  D:xz  D:yz
 F:z3  F:z  F:xyz  F:z2x  F:z2y  F:x  F:y


 Configuration of Valence Electrons
 ==================================

          Occupation Numbers
          -------------------------------------------------
 S        2 1
 P        6
 D        10
 F        0
          -------------------------------------------------

 Total:   19

 Net Charge: 0 (Nuclei minus Electrons)

 Preset values for MO occupations will be applied through SCF cycle no. 1000000
 Thereafter, the program will assign electrons to MOs that are spatially
 similar to the occupied MOs in a "reference" cycle ("KeepOrbitals").
 The reference cycle is always the PREVIOUS cycle: it will evolve with
 the SCF procedure.



 ================================
 (Slater-type)  F U N C T I O N S  ***  (Basis and Fit)  ***
 ================================
  

 Atom Type    1  (Ag)
 ==============

 Valence Basis Sets:  18
 -----------------------
   1 S   30.800000
   2 S   20.300000
   3 S    9.550000
   2 P   21.100000
   3 P   10.100000
   3 D   11.650000
   4 S    6.350000
   4 S    4.050000
   5 S    2.600000
   5 S    1.550000
   5 S    0.950000
   4 P    6.150000
   4 P    4.150000
   4 P    2.900000
   4 D    4.750000
   4 D    2.600000
   4 D    1.380000
   5 P    1.550000

 Frozen Core Shells
 ------------------
    S:  3
    P:  2
    D:  1

 Charge Fitting Sets (for the computation of the Coulomb Potential):  51
 -----------------------------------------------------------------------
   1 S   61.600000
   1 S   36.350000
   2 S   39.760000
   3 S   38.850000
   3 S   27.540000
   4 S   25.820000
   4 S   19.060000
   5 S   17.540000
   5 S   13.330000
   6 S   12.140000
   6 S    9.440000
   7 S    8.550000
   7 S    6.760000
   8 S    6.110000
   8 S    4.900000
   8 S    3.930000
   9 S    3.550000
   9 S    2.880000
   9 S    2.340000
   9 S    1.900000
   2 P   51.900000
   3 P   41.280000
   4 P   32.450000
   5 P   25.520000
   6 P   20.150000
   6 P   13.650000
   7 P   10.840000
   7 P    7.550000
   8 P    6.030000
   8 P    4.290000
   9 P    3.450000
   9 P    2.500000
   3 D   42.450000
   4 D   30.180000
   5 D   21.700000
   6 D   15.790000
   6 D    9.890000
   7 D    7.280000
   7 D    4.710000
   8 D    3.510000
   8 D    2.330000
   4 F   32.800000
   5 F   21.490000
   6 F   14.360000
   6 F    8.280000
   7 F    5.640000
   7 F    3.380000
   5 G   23.300000
   6 G   11.600000
   7 G    6.010000
   7 G    2.760000


 BAS: List of all Elementary Cartesian Basis Functions
 =====================================================

 The numbering in the list below (to the right of the function characteristics) is referred
 to in print-outs of MO eigenvectors and Mulliken populations in the BAS representation
 (as contrasted to the SFO representation).

 Notes:
 1. The functions are characterized by a polynomial prefactor (powers of x,y,z and r) and
    an exponential decay factor alpha.
 2. Since the basis sets are specific for an atom TYPE, the individual functions occur on
    all atoms of that type.
 3. The word 'Core' in the left margin signals that it is a Core Function (CF) : not a
    degree of freedom in the valence set, but only used to ensure orthogonalization of
    the other valence basis functions on the frozen Core Orbitals.


 (power of) X  Y  Z  R     Alpha  on Atom
            ==========     =====     ==========

 Ag                                   1
                                  ---------------------------------------------------------------------------
    Core    0  0  0  0    30.800      1
    Core    0  0  0  1    20.300      2
    Core    0  0  0  2     9.550      3
    Core    1  0  0  0    21.100      4
    Core    0  1  0  0    21.100      5
    Core    0  0  1  0    21.100      6
    Core    1  0  0  1    10.100      7
    Core    0  1  0  1    10.100      8
    Core    0  0  1  1    10.100      9
    Core    2  0  0  0    11.650     10
    Core    1  1  0  0    11.650     11
    Core    1  0  1  0    11.650     12
    Core    0  2  0  0    11.650     13
    Core    0  1  1  0    11.650     14
    Core    0  0  2  0    11.650     15
            0  0  0  3     6.350     16
            0  0  0  3     4.050     17
            0  0  0  4     2.600     18
            0  0  0  4     1.550     19
            0  0  0  4     0.950     20
            1  0  0  2     6.150     21
            0  1  0  2     6.150     22
            0  0  1  2     6.150     23
            1  0  0  2     4.150     24
            0  1  0  2     4.150     25
            0  0  1  2     4.150     26
            1  0  0  2     2.900     27
            0  1  0  2     2.900     28
            0  0  1  2     2.900     29
            2  0  0  1     4.750     30
            1  1  0  1     4.750     31
            1  0  1  1     4.750     32
            0  2  0  1     4.750     33
            0  1  1  1     4.750     34
            0  0  2  1     4.750     35
            2  0  0  1     2.600     36
            1  1  0  1     2.600     37
            1  0  1  1     2.600     38
            0  2  0  1     2.600     39
            0  1  1  1     2.600     40
            0  0  2  1     2.600     41
            2  0  0  1     1.380     42
            1  1  0  1     1.380     43
            1  0  1  1     1.380     44
            0  2  0  1     1.380     45
            0  1  1  1     1.380     46
            0  0  2  1     1.380     47
            1  0  0  3     1.550     48
            0  1  0  3     1.550     49
            0  0  1  3     1.550     50

 Total number of charge fitting functions (nprimf)       230
 Total number of Cartesian basis functions (naos)         50
 Total number of Cartesian core functions  (ncos)         15



 BAS: List of all Elementary Cartesian Basis Functions
 =====================================================

 The numbering in the list below (to the right of the function characteristics) is referred
 to in print-outs of MO eigenvectors and Mulliken populations in the BAS representation
 (as contrasted to the SFO representation).

 Notes:
 1. The functions are characterized by a polynomial prefactor (powers of x,y,z and r) and
    an exponential decay factor alpha.
 2. Since the basis sets are specific for an atom TYPE, the individual functions occur on
    all atoms of that type.
 3. The word 'Core' in the left margin signals that it is a Core Function (CF) : not a
    degree of freedom in the valence set, but only used to ensure orthogonalization of
    the other valence basis functions on the frozen Core Orbitals.


 (power of) X  Y  Z  R     Alpha  on Atom
            ==========     =====     ==========

 Ag                                   1
                                  ---------------------------------------------------------------------------
    Core    0  0  0  0    30.800      1
    Core    0  0  0  1    20.300      2
    Core    0  0  0  2     9.550      3
    Core    1  0  0  0    21.100      4
    Core    0  1  0  0    21.100      5
    Core    0  0  1  0    21.100      6
    Core    1  0  0  1    10.100      7
    Core    0  1  0  1    10.100      8
    Core    0  0  1  1    10.100      9
    Core    2  0  0  0    11.650     10
    Core    1  1  0  0    11.650     11
    Core    1  0  1  0    11.650     12
    Core    0  2  0  0    11.650     13
    Core    0  1  1  0    11.650     14
    Core    0  0  2  0    11.650     15
            0  0  0  3     6.350     16
            0  0  0  3     4.050     17
            0  0  0  4     2.600     18
            0  0  0  4     1.550     19
            0  0  0  4     0.950     20
            1  0  0  2     6.150     21
            0  1  0  2     6.150     22
            0  0  1  2     6.150     23
            1  0  0  2     4.150     24
            0  1  0  2     4.150     25
            0  0  1  2     4.150     26
            1  0  0  2     2.900     27
            0  1  0  2     2.900     28
            0  0  1  2     2.900     29
            2  0  0  1     4.750     30
            1  1  0  1     4.750     31
            1  0  1  1     4.750     32
            0  2  0  1     4.750     33
            0  1  1  1     4.750     34
            0  0  2  1     4.750     35
            2  0  0  1     2.600     36
            1  1  0  1     2.600     37
            1  0  1  1     2.600     38
            0  2  0  1     2.600     39
            0  1  1  1     2.600     40
            0  0  2  1     2.600     41
            2  0  0  1     1.380     42
            1  1  0  1     1.380     43
            1  0  1  1     1.380     44
            0  2  0  1     1.380     45
            0  1  1  1     1.380     46
            0  0  2  1     1.380     47
            1  0  0  3     1.550     48
            0  1  0  3     1.550     49
            0  0  1  3     1.550     50
1
 ***************************************************************************************************



                                              ***********************
                                              *  T E C H N I C A L  *
                                              ***********************
  



 =============================================================
 P A R A L L E L I Z A T I O N  and  V E C T O R I Z A T I O N
 =============================================================
  
 Nr of parallel processes:                                1
 Maximum vector length in NumInt loops:                 128



 ===============
 I O  vs.  C P U  ***  (store numerical data on disk or recalculate)  ***
 ===============
  
 Basis functions:   recalculate when needed
 Fit functions:     recalculate when needed

 IO buffersize (Mb):                                    256.000000



 =====================
 S C F   U P D A T E S
 =====================
  
 Max. nr. of cycles:                               100
 Convergence criterion:                              0.0000000100
   secondary criterion:                              0.0000000100

 Mix parameter (when DIIS does not apply):           0.2000000000
 Special mix parameter for the first cycle:          1.0000000000


 DIIS (Direct Inversion in Iteration Space)
    Replace damping when SCF Error is below:         0.5000000000
    Apply anyway after SCF cycle:
                                                     5
    (Max.) nr. of expansion vectors:                10

    Upperbound on expansion coefficients:            5.0000000000
    (when exceeded, IterationSpace is re-built)
    2nd Upperbound on coefficients:                 25.0000000000
    (when exceeded, simple damping will be used)
 Automatic ElectronSmearing (in case of problematic SCF convergence) disabled



 =================
 P R E C I S I O N  ***  (General: NumInt, NeglectFunctionTails, ...)  ***
 =================
  

 NumInt:           Target precision:                10.0000000000
 -------           Initial precision:               10.0000000000
                   Min. precision (optimization):   10.0000000000

 Neglect Functions:          Basis functions:        0.1000000000E-11
 ------------------          Fit functions:          0.1000000000E-11



 ===========================
 L I N E A R   S C A L I N G
 ===========================
  

 Cut-off radii density fit:                        0.1000000000E-13
 Overlap cut-off criterion AO matrix elements:     0.1000000000E-11
 Cut-offs for Coulomb potential and fitted density:0.1000000000E-13
 Cut-off criterion for Coulomb multipole terms:    0.1000000000E-13
 Progressive Convergence parameter:                 0.000000000    
1
 ***************************************************************************************************



                                            ***************************
                                            *  C O M P U T A T I O N  *
                                            ***************************
  

 Number of elements of the density matrix on this node (used, total):      1275      1275



 ====================================================
 Numerical Integration : Voronoi Polyhedra (Te Velde)  ***  (parameters, tests)  ***
 ====================================================
  
 General Accuracy Parameter :                         10.00

 Symmetry used in the points section:  ATOM  


 Summary of the Symmetry Unique Points:
 --------------------------------------
    Nr. of used Symmetry Operators                     1

    Points in the Atomic Spheres                      94
    Points in the Atomic Polyhedra                     0
    Points in the Outer Region                         0
    ----------------------------------------------------
    Total                                             94

    Sum of Weights                                114259.875357

 Total nr. of points:         94
 Nr. of blocks:                1
 Block length:                94
 Nr. of dummy points:          0


 Test of Precision of the Numerical Integration Grid
 ===================================================

 Integral of the Total Core Density:                  27.99999992831499
 Relative Error:                                      -2.560E-09



 =====
 S C F
 =====
  

 CYCLE    1
 orbitals (Q,E):
 ---------------
 S :1...5            ( 2.00    -3.4932)  ( 1.00    -0.1678)  ( 0.00     0.0495)  ( 0.00     0.5481)
                     ( 0.00     4.1890)
 P :1...4            ( 6.00    -2.1702)  ( 0.00     0.0010)  ( 0.00     0.9464)  ( 0.00     6.3133)
 D :1...3            (10.00    -0.2809)  ( 0.00     0.2936)  ( 0.00     2.2251)

 CYCLE    2
 d-Pmat  mean:  0.22E-02
 imax=     33: -0.66E-02
 orbitals (Q,E):
 ---------------
 S :1...3            ( 2.00    -3.4789)  ( 1.00    -0.1655)  ( 0.00     0.0499)
 P :1...2            ( 6.00    -2.1568)  ( 0.00     0.0025)
 D :1...2            (10.00    -0.2711)  ( 0.00     0.2958)

 CYCLE    3
 d-Pmat  mean:  0.14E-02
 imax=     35:  0.43E-02
 orbitals (Q,E):
 ---------------
 S :1...3            ( 2.00    -3.4878)  ( 1.00    -0.1670)  ( 0.00     0.0494)
 P :1...2            ( 6.00    -2.1651)  ( 0.00     0.0014)
 D :1...2            (10.00    -0.2771)  ( 0.00     0.2943)

 CYCLE    4
 d-Pmat  mean:  0.75E-04
 imax=     18:  0.23E-03
 orbitals (Q,E):
 ---------------
 S :1...3            ( 2.00    -3.4884)  ( 1.00    -0.1672)  ( 0.00     0.0493)
 P :1...2            ( 6.00    -2.1657)  ( 0.00     0.0012)
 D :1...2            (10.00    -0.2776)  ( 0.00     0.2941)

 CYCLE    5
 d-Pmat  mean:  0.28E-05
 imax=     18: -0.99E-05
 orbitals (Q,E):
 ---------------
 S :1...3            ( 2.00    -3.4884)  ( 1.00    -0.1672)  ( 0.00     0.0493)
 P :1...2            ( 6.00    -2.1657)  ( 0.00     0.0012)
 D :1...2            (10.00    -0.2775)  ( 0.00     0.2941)

 CYCLE    6
 d-Pmat  mean:  0.17E-07
 imax=     19: -0.13E-06
 orbitals (Q,E):
 ---------------
 S :1...3            ( 2.00    -3.4884)  ( 1.00    -0.1672)  ( 0.00     0.0493)
 P :1...2            ( 6.00    -2.1657)  ( 0.00     0.0012)
 D :1...2            (10.00    -0.2775)  ( 0.00     0.2941)

 CYCLE    7
 d-Pmat  mean:  0.11E-08
 imax=     19: -0.11E-07
 orbitals (Q,E):
 ---------------
 S :1...3            ( 2.00    -3.4884)  ( 1.00    -0.1672)  ( 0.00     0.0493)
 P :1...2            ( 6.00    -2.1657)  ( 0.00     0.0012)
 D :1...2            (10.00    -0.2775)  ( 0.00     0.2941)

 SCF CONVERGED

 CYCLE    8
1
 ***************************************************************************************************



                                                *******************
                                                *  R E S U L T S  *
                                                *******************
  
 *** Setting up for NEW gradients in focky
 *** Using FIT density in focky
 XCFun disabled
 XCFun disabled
 XCFun disabled

 Scaled ZORA Orbital Energies, per Irrep and Spin:
 =================================================
                        Occup              E (au)              E (eV)       Diff (eV) with prev. cycle
                        -----      --------------------        ------       --------------------------
 S
               1        2.000     -0.34883937327255E+01       -94.924               1.01E-09
               2        1.000     -0.16721774376307E+00        -4.550               8.48E-10
               3        0.000      0.49292090859751E-01         1.341
               4        0.000      0.54900113066203E+00        14.939
               5        0.000      0.41923034015691E+01       114.078
 P
               1        6.000     -0.21656535049739E+01       -58.930               1.04E-09
               2        0.000      0.12312059741376E-02         0.034
               3        0.000      0.94805018589873E+00        25.798
               4        0.000      0.63168566721937E+01       171.890
 D
               1       10.000     -0.27753746737237E+00        -7.552               1.07E-09
               2        0.000      0.29412398526233E+00         8.004
               3        0.000      0.22279871540449E+01        60.627


 Partially Occupied:
               2 S                -0.16721774376307E+00
  
 HOMO :        1 D                -0.27753746737237E+00
 LUMO :        2 P                 0.12312059741376E-02
  


 Orbital Energies, all Irreps
 ========================================

 Irrep        no.  (spin)   Occup              E (au)                E (eV)
 ---------------------------------------------------------------------------
 S             1             2.00       -0.34883937327255E+01       -94.9240
 P             1             6.00       -0.21656535049739E+01       -58.9304
 D             1            10.00       -0.27753746737237E+00        -7.5522
 S             2             1.00       -0.16721774376307E+00        -4.5502
 P             2             0.00        0.12312059741376E-02         0.0335
 S             3             0.00        0.49292090859751E-01         1.3413
 D             2             0.00        0.29412398526233E+00         8.0035
 S             4             0.00        0.54900113066203E+00        14.9391
 P             3             0.00        0.94805018589873E+00        25.7978
 D             3             0.00        0.22279871540449E+01        60.6266
 S             5             0.00        0.41923034015691E+01       114.0784
 P             4             0.00        0.63168566721937E+01       171.8904


 Scaled ZORA Orbital Energies of the Core Orbitals:
 ==================================================

 (Note that the atoms are grouped by atomtype, see the labels, and may hence NOT be in input order)

 AtomType  Orbital  Atom                   E (au)                        E (eV)
 --------  -------  ----           --------------------        ----------------
 Ag          1S        1          -0.93051917515589E+03              -25320.715
             2S        1          -0.13700540306455E+03               -3728.107
             3S        1          -0.25114511935225E+02                -683.401
             2P        1          -0.12286153862350E+03               -3343.233
             3P        1          -0.20498924322833E+02                -557.804
             3D        1          -0.13198949396919E+02                -359.162



 =======================================
 M U L L I K E N   P O P U L A T I O N S
 =======================================
  
 The survey below gives for each atom:
 a) the total charge (Z minus electrons)
 b) the net spin polarization (nr of electrons spin-A minus spin-B)
 c) for each spin the atomic electron valence density (integrated) per L-value.

 Atom              Charge    Spin density          S         P         D         F
 ----              ------    ------------       ------    ------    ------    ------
 1 Ag              0.0000                       3.0000    6.0000   10.0000    0.0000

 Populations of individual BAS functions
 ----------------------------------------
 1 Ag          -0.0085  0.0044 -0.0712  0.0003  0.0003  0.0003  0.0270  0.0270  0.0270  0.0387
                0.0580  0.0580  0.0387  0.0580  0.0387  1.3215  0.7613  0.3605  0.5376  0.0943
                0.7450  0.7450  0.7450  1.0681  1.0681  1.0681  0.1587  0.1587  0.1587  0.5515
                0.8273  0.8273  0.5515  0.8273  0.5515  0.6409  0.9614  0.9614  0.6409  0.9614
                0.6409  0.1022  0.1533  0.1533  0.1022  0.1533  0.1022  0.0010  0.0010  0.0010

 Gross Charges per Atom (Z minus electrons)
 ==========================================
             0.0000
 Net Total:  0.00000000


 Atom-Atom Population Matrix (off-diagonal elements not doubled)
 ===============================================================

     1 :    19.0000



 =============
 Dipole Moment  ***  (Debye)  ***
 =============
  
 Vector   :         0.00000000      0.00000000      0.00000000
 Magnitude:         0.00000000

 This molecular dipole moment is calculated with analytic integration



 =========================================
 Quadrupole Moment (Buckingham convention)  ***  (a.u.)  ***
 =========================================
  
      quad-xx        quad-xy        quad-xz        quad-yy        quad-yz        quad-zz
      0.00000000     0.00000000     0.00000000     0.00000000     0.00000000     0.00000000

 This molecular quadrupole moment is calculated with analytic integration



 ===============================================================================
 Electrostatic potential at the Nuclei due to valence electrons and other nuclei
 ===============================================================================
  
         Atom                  Potential
         ----                  ---------
     1)   Ag                 21.10983739
 
 
 ========================
 No memory problems found
 ========================
 
 Maximum number of active allocate calls:         391
 
 *******************************************************************************

                             A D F   E X I T
 NORMAL TERMINATION



 =================
 Timing Statistics
 =================
  
 Total Used :                     CPU=        0.24      System=        0.07     Elapsed=        0.59

 Calls  Section                     ( Mean, Percentage )
 ---------------------------------------------------------------------------------------------------
     3  ><      ................      0.00    0.00             0.00    0.00             0.00    0.90
     1  INIT    ................      0.00    0.00             0.01   14.29             0.19   32.95
     1  GEOMET  ................      0.00    0.00             0.06   85.71             0.10   16.96
     1  INPUTA  ................      0.01    4.17             0.00    0.00             0.00    0.59
     1  MAINSY  ................      0.02    8.33             0.00    0.00             0.05    8.00
     1  SYMFIT  ................      0.00    0.00             0.00    0.00             0.00    0.07
     1  CORORT  ................      0.00    0.00             0.00    0.00             0.00    0.11
     1  SYMORB  ................      0.00    0.00             0.00    0.00             0.00    0.17
     1  FITINT  ................      0.02    8.33             0.00    0.00             0.01    1.18
     1  CLSMAT  ................      0.00    0.00             0.00    0.00             0.00    0.07
     1  ORTHON  ................      0.00    0.00             0.00    0.00             0.01    0.85
     1  ETALOW  ................      0.00    0.00             0.00    0.00             0.00    0.12
     1  GENPT   ................      0.02    8.33             0.00    0.00             0.01    2.55
     1  PTBAS   ................      0.00    0.00             0.00    0.00             0.00    0.51
     8  FOCKY   ................      0.02   54.17             0.00    0.00             0.02   25.55
     8  FOCKTR  ................      0.00    0.00             0.00    0.00             0.00    0.33
     8  FOCKNM  ................      0.00    0.00             0.00    0.00             0.00    0.04
     8  SDIIS   ................      0.00    0.00             0.00    0.00             0.00    0.43
     8  EMERGE  ................      0.00    0.00             0.00    0.00             0.00    3.16
     1  COREPS  ................      0.02    8.33             0.00    0.00             0.01    1.71
     1  POPAN   ................      0.00    0.00             0.00    0.00             0.00    0.30
     1  DEBYE   ................      0.00    0.00             0.00    0.00             0.00    0.10
     1  QMPOT   ................      0.00    0.00             0.00    0.00             0.00    0.52
     1  EXIT PROCEDURE .........      0.02    8.33             0.00    0.00             0.02    2.85


 Currently Open Files (EXIT00)
 ====================

 Unit    Access Format  Status   Type       Ident (file)
 -------------------------------------------------------
   3      SEQ    FORM   TRANSP  NORMAL      LOGFILE
                                          ( logfile )


 Buffered I/O statistics
 =======================
 Memory available:                    268435456
 Number of records fitting in memory:     64527
 Input :   1.3% of                         3830  *4k bytes
 Output:  10.3% of                         1959  *4k bytes
 Records from serial files evicted:           0
                    others evicted:           0
 Hash table lookups:      15695 with          0 conflicts (  0.00%)

 ***************************************************************************************************
 (LOGFILE)
 <Sep02-2015> <10:48:07>  DIRAC 2012.01  RunTime: Sep02-2015 10:48:07  Nodes: 1  Procs: 1
 <Sep02-2015> <10:48:07>  NORMAL TERMINATION
 <Sep02-2015> <10:48:07>  END
 <Sep02-2015> <10:48:09>  ADF 2012.01  RunTime: Sep02-2015 10:48:09  Nodes: 1  Procs: 1
 <Sep02-2015> <10:48:09>  Hydrogen (TZP)
 <Sep02-2015> <10:48:09>  RunType   : CREATE
 <Sep02-2015> <10:48:09>  Net Charge: 0 (Nuclei minus Electrons)
 <Sep02-2015> <10:48:09>  Symmetry  : ATOM
 <Sep02-2015> <10:48:09>  >>>> CORORT
 <Sep02-2015> <10:48:09>  >>>> FITINT
 <Sep02-2015> <10:48:09>  >>>> CLSMAT
 <Sep02-2015> <10:48:09>  >>>> ORTHON
 <Sep02-2015> <10:48:09>  >>>> GENPT
 <Sep02-2015> <10:48:09>  Acc.Num.Int.=  10.000
 <Sep02-2015> <10:48:09>  Block Length=  35
 <Sep02-2015> <10:48:09>  >>>> PTBAS
 <Sep02-2015> <10:48:09>  >>>> CYCLE
 <Sep02-2015> <10:48:09>    1
 <Sep02-2015> <10:48:09>    2  ErrMat   0.00258453  MaxEl -0.00253172
 <Sep02-2015> <10:48:09>    3  ErrMat   0.00050241  MaxEl  0.00048214
 <Sep02-2015> <10:48:09>    4  ErrMat   0.00000638  MaxEl  0.00000533
 <Sep02-2015> <10:48:09>    5  ErrMat   0.00000001  MaxEl -0.00000001
 <Sep02-2015> <10:48:09>  SCF converged
 <Sep02-2015> <10:48:11>    6  ErrMat   0.00000000  MaxEl  0.00000000
 <Sep02-2015> <10:48:11>   Solutions with partially occupied orbitals may not be
 <Sep02-2015> <10:48:11>   lowest in energy. You might consider lowering the
 <Sep02-2015> <10:48:11>   symmetry in the input and explicitly specifying integer
 <Sep02-2015> <10:48:11>   occupations. In that case always check that you obtain
 <Sep02-2015> <10:48:11>   an aufbau solution.
 <Sep02-2015> <10:48:11>  >>>> POPAN
 <Sep02-2015> <10:48:11>  >>>> DEBYE
 <Sep02-2015> <10:48:11>  NORMAL TERMINATION
 <Sep02-2015> <10:48:11>  END
 <Sep02-2015> <10:48:11>  DIRAC 2012.01  RunTime: Sep02-2015 10:48:11  Nodes: 1  Procs: 1
 <Sep02-2015> <10:48:12>  NORMAL TERMINATION
 <Sep02-2015> <10:48:12>  END
 <Sep02-2015> <10:48:15>  ADF 2012.01  RunTime: Sep02-2015 10:48:15  Nodes: 1  Procs: 1
 <Sep02-2015> <10:48:15>  Silver (TZP, 3d frozen)
 <Sep02-2015> <10:48:15>  RunType   : CREATE
 <Sep02-2015> <10:48:15>  Net Charge: 0 (Nuclei minus Electrons)
 <Sep02-2015> <10:48:15>  Symmetry  : ATOM
 <Sep02-2015> <10:48:15>  >>>> CORORT
 <Sep02-2015> <10:48:15>  >>>> FITINT
 <Sep02-2015> <10:48:15>  >>>> CLSMAT
 <Sep02-2015> <10:48:15>  >>>> ORTHON
 <Sep02-2015> <10:48:15>  >>>> GENPT
 <Sep02-2015> <10:48:15>  Acc.Num.Int.=  10.000
 <Sep02-2015> <10:48:15>  Block Length=  94
 <Sep02-2015> <10:48:15>  >>>> PTBAS
 <Sep02-2015> <10:48:15>  >>>> CYCLE
 <Sep02-2015> <10:48:15>    1
 <Sep02-2015> <10:48:15>    2  ErrMat   0.02728591  MaxEl  0.00887264
 <Sep02-2015> <10:48:15>    3  ErrMat   0.05713964  MaxEl -0.01729688
 <Sep02-2015> <10:48:15>    4  ErrMat   0.00229105  MaxEl -0.00078765
 <Sep02-2015> <10:48:15>    5  ErrMat   0.00007667  MaxEl  0.00002781
 <Sep02-2015> <10:48:15>    6  ErrMat   0.00000030  MaxEl -0.00000012
 <Sep02-2015> <10:48:15>    7  ErrMat   0.00000001  MaxEl  0.00000000
 <Sep02-2015> <10:48:15>  SCF converged
 <Sep02-2015> <10:48:15>    8  ErrMat   0.00000000  MaxEl  0.00000000
 <Sep02-2015> <10:48:15>   Solutions with partially occupied orbitals may not be
 <Sep02-2015> <10:48:15>   lowest in energy. You might consider lowering the
 <Sep02-2015> <10:48:15>   symmetry in the input and explicitly specifying integer
 <Sep02-2015> <10:48:15>   occupations. In that case always check that you obtain
 <Sep02-2015> <10:48:15>   an aufbau solution.
 <Sep02-2015> <10:48:15>  >>>> POPAN
 <Sep02-2015> <10:48:15>  >>>> DEBYE
 <Sep02-2015> <10:48:15>  NORMAL TERMINATION
 <Sep02-2015> <10:48:15>  END

 *******************************************************************************
 *                                                                             *
 *  -------------------------------------                                      *
 *   Amsterdam Density Functional  (ADF)         2012.01   January 26, 2012    *
 *  -------------------------------------                                      *
 *                                               Build 201201262206            *
 *                                                                             *
 *                                                                             *
 *                            =====================                            *
 *                            |                   |                            *
 *                            |     D I R A C     |                            *
 *                            |                   |                            *
 *                            =====================                            *
 *                                                                             *
 *                                                                             *
 *   Online information and documentation:  http://www.scm.com                 *
 *   E-mail:  support@scm.com   info@scm.com                                   *
 *                                                                             *
 *   Scientific publications using ADF results must be properly referenced     *
 *   See the User Manuals (or the web site) for recommended citations          *
 *   The terms and conditions of the End User License Agreement apply to       *
 *   the use of ADF, http://www.scm.com/Sales/LicAgreement.html                *
 *                                                                             *
 *****************************  pentium64_linux  *******************************
 
 DIRAC 2012.01  RunTime: Sep02-2015 10:48:16  Nodes: 1  Procs: 1

 Temporary files are created in /tmp/2102179.1.batch.q/kid_0.FrnqGY

1
 CARBON ATOM 1s CORE RELATIVISTIC, Point Nuc, A and c from li
 N J RN H ZN XION ANUC CLIGHT
 5000    4100.00000000197.36710137  6.00000000  0.00000000   12.000000  0.1370360E+03
  PH   PHI     EPS        DEL        DELRVR
  0.30  0.30     2500.00  0.00001000  0.00001000
 IDIRC  NC1  NDEBU NPRIN  IPUN IRCOR IWCOR
   1   300     0     0     0     0     1
   XALPHA      XLATTER      RNUC
  0.70000000  0.00000000  0.00000000 Point Charge
   XN   XL   XJ      XE          XZ      XDELL
  1.0  0.0  0.5      -5.000       2.000     0.00000
  2.0  0.0  0.5      -1.000       2.000     0.00000
  2.0  1.0  0.5      -1.000       2.000     0.00000
  2.0  1.0  1.5      -1.000       0.000     0.00000
 ICORP=  0  NPCL=  0  DEMP=0.00  PEPS=0.000000
 R(1)=  0.1000000E-08 D=  0.1005080E+01 RNUC=  0.0000000E+00
 converged at cycle   26  DENSITY AVERAGING    0.3000
  MAXIMUM ERROR IN R.V(R) IS   0.55010513E-05
 Q,EY,EV,EZ,ESUM,ETOT,RHO  0.600000E+01 -0.610129E+01 -0.585189E+02 -0.876464E+02 -0.211985E+02 -0.372876E+02  0.164808E-14


 DIRAC CALCULATION
1                    CARBON ATOM 1s CORE RELATIVISTIC, Point Nuc, A and c from libtc


 EXCHANGE COEFFICIENT=  0.7000000           TAIL CORRECTION=  0.           NUCLEAR RADIUS=  0.000E+00
0                       ORBITAL    N    L    J     ELECTRONS     EIGENVALUE                DELTA OF EIGENV.

                          1S1/2  1.0  0.0  0.5     2.000       -0.9959611E+01                 0.1355092E-04
                          2S1/2  2.0  0.0  0.5     2.000       -0.4708542E+00                 0.1106918E-05
                          2P1/2  2.0  1.0  0.5     2.000       -0.1687896E+00                 0.8770186E-06
                          2P3/2  2.0  1.0  1.5     0.000       -0.1684646E+00                 0.8770830E-06


                                        NUCLEAR CHARGE=    6.000000
                            INTEGRAL OF CHARGE DENSITY=    6.000000
                           SUM OF THE ORBITAL ENERGIES=    -21.1985
                                          TOTAL ENERGY=    -37.2876
                                        KINETIC ENERGY=     37.3204
                             NUCLEAR ATTRACTION ENERGY=    -87.6464
                             ELECTRON REPULSION ENERGY=     17.6144
                                       EXCHANGE ENERGY=     -4.5760

 *******************************************************************************

                             D I R A C   E X I T
 NORMAL TERMINATION



 =================
 Timing Statistics
 =================
  
 Total Used :                     CPU=        0.15      System=        0.04     Elapsed=        0.19

 Calls  Section                     ( Mean, Percentage )
 ---------------------------------------------------------------------------------------------------
     2  ><      ................      0.00    0.00             0.00    0.00             0.00    0.00
     1  EXIT PROCEDURE .........      0.15  100.00             0.04  100.00             0.19  100.00


 Currently Open Files (EXIT00)
 ====================

 Unit    Access Format  Status   Type       Ident (file)
 -------------------------------------------------------
   3      SEQ    FORM   TRANSP  NORMAL      LOGFILE
                                          ( logfile )


 Buffered I/O statistics
 =======================
 Memory available:                    268435456
 Number of records fitting in memory:     64527
 Input : 100.0% of                            0  *4k bytes
 Output: 100.0% of                            0  *4k bytes
 Records from serial files evicted:           0
                    others evicted:           0
 Hash table lookups:          0 with          0 conflicts (100.00%)
(INPUT FILE)
Create C   file=/homes/cmaikens/adf2012.01/atomicdata/ZORA/TZP/C.1s
XC
GGA Becke Perdew
End
relativistic ZORA
Corepotentials t12.rel
End Input

 *******************************************************************************
 *                                                                             *
 *  -------------------------------------                                      *
 *   Amsterdam Density Functional  (ADF)         2012.01   January 26, 2012    *
 *  -------------------------------------                                      *
 *                                               Build 201201262307            *
 *                                                                             *
 *                                                                             *
 *                              =================                              *
 *                              |               |                              *
 *                              |     A D F     |                              *
 *                              |               |                              *
 *                              =================                              *
 *                                                                             *
 *                                                                             *
 *   Online information and documentation:  http://www.scm.com                 *
 *   E-mail:  support@scm.com   info@scm.com                                   *
 *                                                                             *
 *   Scientific publications using ADF results must be properly referenced     *
 *   See the User Manuals (or the web site) for recommended citations          *
 *   The terms and conditions of the End User License Agreement apply to       *
 *   the use of ADF, http://www.scm.com/Sales/LicAgreement.html                *
 *                                                                             *
 **********************  pentium64_linux / platform_mpi  ***********************
 
 ADF 2012.01  RunTime: Sep02-2015 10:48:21  Nodes: 1  Procs: 1

 Temporary files are created in /tmp/2102179.1.batch.q/kid_0.alGLWt

 Carbon (TZP, 1s frozen)



 ===========================
 A T T A C H E D   F I L E S
 ===========================
  
 CREATE - Data File:    /homes/cmaikens/adf2012.01/atomicdata/ZORA/TZP/C.1s
                        Carbon (TZP, 1s frozen)
 Core Potentials:
         file : t12.rel



 ===============================
 M O D E L   P A R A M E T E R S
 ===============================
  
 DENSITY FUNCTIONAL POTENTIAL (scf)
    LDA:                               VWN                                      
    Gradient Corrections:              Becke88 Perdew86                        == Not Default ==

 SPIN  (restricted / unrestr.)
    Molecule:                          Restricted                               

 OTHER ASPECTS
    Relativistic Corrections:          scalar (ZORA,SAPA)                       *** SPECIAL ***

    Nuclear Charge Density Model:      Point Charge Nuclei                                                                                                                                                                                     
    Core Treatment:                    Frozen Orbital(s)                        

    Electric Field:                    ---                                      

    Hyperfine or Zeeman Interaction:   ---                                      



 =====================================
 S Y M M E T R Y ,   E L E C T R O N S
 =====================================
  
 Symmetry: ATOM

 Irreducible Representations, including subspecies
 -------------------------------------------------
 S
 P:x  P:y  P:z
 D:z2  D:x2-y2  D:xy  D:xz  D:yz
 F:z3  F:z  F:xyz  F:z2x  F:z2y  F:x  F:y


 Configuration of Valence Electrons
 ==================================

          Occupation Numbers
          -------------------------------------------------
 S        2
 P        2
 D        0
 F        0
          -------------------------------------------------

 Total:   4

 Net Charge: 0 (Nuclei minus Electrons)

 Preset values for MO occupations will be applied through SCF cycle no. 1000000
 Thereafter, the program will assign electrons to MOs that are spatially
 similar to the occupied MOs in a "reference" cycle ("KeepOrbitals").
 The reference cycle is always the PREVIOUS cycle: it will evolve with
 the SCF procedure.



 ================================
 (Slater-type)  F U N C T I O N S  ***  (Basis and Fit)  ***
 ================================
  

 Atom Type    1  (C)
 ==============

 Valence Basis Sets:   8
 -----------------------
   1 S    5.400000
   2 S    1.280000
   2 S    2.100000
   2 S    4.600000
   2 P    0.820000
   2 P    1.480000
   2 P    2.940000
   3 D    2.200000

 Frozen Core Shells
 ------------------
    S:  1

 Charge Fitting Sets (for the computation of the Coulomb Potential):  20
 -----------------------------------------------------------------------
   1 S   10.800000
   2 S   11.590000
   2 S    7.590000
   2 S    4.970000
   3 S    4.790000
   3 S    3.350000
   3 S    2.340000
   3 S    1.640000
   2 P    8.340000
   2 P    5.140000
   3 P    4.670000
[...]
 <Sep02-2015> <11:20:30>  gradient max                        0.00027160
 <Sep02-2015> <11:20:30>  gradient rms                        0.00007493
 <Sep02-2015> <11:20:30>  cart. step max                      0.01782075     0.01000000    F
 <Sep02-2015> <11:20:30>  cart. step rms                      0.00520177     0.00666667    T
  Coordinates in Geometry Cycle 22
    Atom         X           Y           Z   (Angstrom)
    1.Ag       12.021811   10.704728   10.056530
    2.Ag       11.532973    9.526016   12.842452
    3.S        13.445474    8.125550   13.853176
    4.S        10.890236   11.297463   14.575794
    5.S        13.755497   12.188559    9.442852
    6.S        10.293445    9.189011   10.734153
    7.C        13.166897   12.996360    7.873930
    8.C        10.298303   12.767879   13.638949
    9.C        10.795100    7.536656   10.041441
   10.C        14.957360    8.554809   12.889326
   11.H        12.232632   13.543937    8.040723
   12.H        13.014620   12.253641    7.082819
   13.H        13.942474   13.703458    7.554160
   14.H         9.300275   12.506690   13.272430
   15.H        10.962341   12.981667   12.796697
   16.H        10.234061   13.621365   14.319686
   17.H        10.209869    6.764870   10.554089
   18.H        11.862215    7.350061   10.190368
   19.H        10.562311    7.522432    8.970953
   20.H        14.732366    8.619091   11.821114
   21.H        15.728693    7.804081   13.085517
   22.H        15.286682    9.530299   13.262249
   23.H        13.177742    6.950881   13.224922
   24.H        12.121407   11.781284   14.886656
 <Sep02-2015> <11:20:30>  >>>> CORORT
 <Sep02-2015> <11:20:30>  >>>> FITINT
 <Sep02-2015> <11:20:32>  >>>> CLSMAT
 <Sep02-2015> <11:20:32>  >>>> ORTHON
 <Sep02-2015> <11:20:32>  >>>> GENPT
 <Sep02-2015> <11:20:32>  Acc.Num.Int.=   6.000
 <Sep02-2015> <11:20:32>  Reusing previous cell geometry for gradient smoothing.
 <Sep02-2015> <11:20:32>  Block Length= 128
 <Sep02-2015> <11:20:33>  >>>> PTBAS
 <Sep02-2015> <11:20:38>  >>>> SURPTS
 <Sep02-2015> <11:20:38>  combining surface points...
 <Sep02-2015> <11:20:38>  combining surface points...
 <Sep02-2015> <11:20:38>  combining surface points...
 <Sep02-2015> <11:20:38>  >>>> CYCLE
 <Sep02-2015> <11:20:41>    1
 <Sep02-2015> <11:20:44>    2  ErrMat   0.16808592  MaxEl -0.03547568
 <Sep02-2015> <11:20:48>    3  ErrMat   0.09012244  MaxEl -0.01682716
 <Sep02-2015> <11:20:52>    4  ErrMat   0.04636687  MaxEl  0.00897939
 <Sep02-2015> <11:20:55>    5  ErrMat   0.03515939  MaxEl -0.00893140
 <Sep02-2015> <11:20:59>    6  ErrMat   0.01214349  MaxEl  0.00290328
 <Sep02-2015> <11:21:02>    7  ErrMat   0.00409422  MaxEl  0.00077397
 <Sep02-2015> <11:21:06>    8  ErrMat   0.00128757  MaxEl -0.00021047
 <Sep02-2015> <11:21:09>    9  ErrMat   0.00042443  MaxEl  0.00009327
 <Sep02-2015> <11:21:13>   10  ErrMat   0.00021318  MaxEl -0.00004270
 <Sep02-2015> <11:21:17>   11  ErrMat   0.00005953  MaxEl  0.00001082
 <Sep02-2015> <11:21:20>   12  ErrMat   0.00003597  MaxEl  0.00000847
 <Sep02-2015> <11:21:24>   13  ErrMat   0.00001134  MaxEl -0.00000299
 <Sep02-2015> <11:21:27>   14  ErrMat   0.00000312  MaxEl -0.00000137
 <Sep02-2015> <11:21:31>   15  ErrMat   0.00000070  MaxEl -0.00000022
 <Sep02-2015> <11:21:31>  SCF converged
 <Sep02-2015> <11:21:34>   16  ErrMat   0.00000026  MaxEl  0.00000004
 <Sep02-2015> <11:21:35>  >>>> TOTEN
 <Sep02-2015> <11:21:42>  >>>> POPAN
 <Sep02-2015> <11:21:42>  >>>> DEBYE
 <Sep02-2015> <11:21:42>  >>>> AMETS
 <Sep02-2015> <11:21:43>  >>>> ENGRAD
 <Sep02-2015> <11:22:02>  current energy                               -3.90611819 Hartree
 <Sep02-2015> <11:22:02>  energy change                       0.00005063     0.00010000    T
 <Sep02-2015> <11:22:02>  constrained gradient max            0.00017155     0.00100000    T
 <Sep02-2015> <11:22:02>  constrained gradient rms            0.00006731     0.00066667    T
 <Sep02-2015> <11:22:02>  gradient max                        0.00017155
 <Sep02-2015> <11:22:02>  gradient rms                        0.00006731
 <Sep02-2015> <11:22:02>  cart. step max                      0.01093486     0.01000000    F
 <Sep02-2015> <11:22:02>  cart. step rms                      0.00362984     0.00666667    T
  Coordinates in Geometry Cycle 23
    Atom         X           Y           Z   (Angstrom)
    1.Ag       12.021171   10.704809   10.057175
    2.Ag       11.533086    9.524676   12.841877
    3.S        13.445194    8.125711   13.853924
    4.S        10.891689   11.298868   14.573861
    5.S        13.756366   12.186498    9.442385
    6.S        10.292287    9.189238   10.733868
    7.C        13.163306   13.001365    7.878641
    8.C        10.302487   12.768204   13.633531
    9.C        10.794268    7.537310   10.040300
   10.C        14.959094    8.557937   12.894710
   11.H        12.231284   13.550734    8.051658
   12.H        13.005742   12.261898    7.085548
   13.H        13.939262   13.707663    7.558048
   14.H         9.304395   12.507437   13.266745
   15.H        10.967702   12.979178   12.791487
   16.H        10.238599   13.623452   14.312213
   17.H        10.209781    6.765089   10.553083
   18.H        11.861560    7.351294   10.188488
   19.H        10.560859    7.523178    8.969948
   20.H        14.737072    8.622900   11.825915
   21.H        15.730715    7.807941   13.092587
   22.H        15.286189    9.533510   13.269454
   23.H        13.181405    6.951215   13.223905
   24.H        12.123124   11.781819   14.885180
 <Sep02-2015> <11:22:02>  >>>> CORORT
 <Sep02-2015> <11:22:02>  >>>> FITINT
 <Sep02-2015> <11:22:03>  >>>> CLSMAT
 <Sep02-2015> <11:22:04>  >>>> ORTHON
 <Sep02-2015> <11:22:04>  >>>> GENPT
 <Sep02-2015> <11:22:04>  Acc.Num.Int.=   6.000
 <Sep02-2015> <11:22:04>  Reusing previous cell geometry for gradient smoothing.
 <Sep02-2015> <11:22:04>  Block Length= 128
 <Sep02-2015> <11:22:05>  >>>> PTBAS
 <Sep02-2015> <11:22:10>  >>>> SURPTS
 <Sep02-2015> <11:22:10>  combining surface points...
 <Sep02-2015> <11:22:10>  combining surface points...
 <Sep02-2015> <11:22:10>  combining surface points...
 <Sep02-2015> <11:22:10>  >>>> CYCLE
 <Sep02-2015> <11:22:13>    1
 <Sep02-2015> <11:22:16>    2  ErrMat   0.16848956  MaxEl -0.03550759
 <Sep02-2015> <11:22:20>    3  ErrMat   0.09027767  MaxEl -0.01683808
 <Sep02-2015> <11:22:24>    4  ErrMat   0.04706007  MaxEl  0.00931637
 <Sep02-2015> <11:22:27>    5  ErrMat   0.03545984  MaxEl -0.00907806
 <Sep02-2015> <11:22:31>    6  ErrMat   0.01208307  MaxEl  0.00286331
 <Sep02-2015> <11:22:34>    7  ErrMat   0.00405672  MaxEl  0.00076808
 <Sep02-2015> <11:22:38>    8  ErrMat   0.00130001  MaxEl -0.00021775
 <Sep02-2015> <11:22:41>    9  ErrMat   0.00043968  MaxEl  0.00009609
 <Sep02-2015> <11:22:45>   10  ErrMat   0.00023440  MaxEl -0.00004518
 <Sep02-2015> <11:22:48>   11  ErrMat   0.00006318  MaxEl  0.00001747
 <Sep02-2015> <11:22:52>   12  ErrMat   0.00002849  MaxEl  0.00001102
 <Sep02-2015> <11:22:55>   13  ErrMat   0.00003062  MaxEl -0.00001141
 <Sep02-2015> <11:22:59>   14  ErrMat   0.00001573  MaxEl  0.00000658
 <Sep02-2015> <11:23:03>   15  ErrMat   0.00000716  MaxEl  0.00000209
 <Sep02-2015> <11:23:06>   16  ErrMat   0.00000891  MaxEl -0.00000350
 <Sep02-2015> <11:23:10>   17  ErrMat   0.00000412  MaxEl  0.00000131
 <Sep02-2015> <11:23:13>   18  ErrMat   0.00000142  MaxEl  0.00000056
 <Sep02-2015> <11:23:13>  SCF converged
 <Sep02-2015> <11:23:17>   19  ErrMat   0.00000023  MaxEl  0.00000006
 <Sep02-2015> <11:23:17>  >>>> TOTEN
 <Sep02-2015> <11:23:25>  >>>> POPAN
 <Sep02-2015> <11:23:25>  >>>> DEBYE
 <Sep02-2015> <11:23:25>  >>>> AMETS
 <Sep02-2015> <11:23:25>  >>>> ENGRAD
 <Sep02-2015> <11:23:44>  current energy                               -3.90610296 Hartree
 <Sep02-2015> <11:23:44>  energy change                       0.00001523     0.00010000    T
 <Sep02-2015> <11:23:44>  constrained gradient max            0.00017380     0.00100000    T
 <Sep02-2015> <11:23:44>  constrained gradient rms            0.00005430     0.00066667    T
 <Sep02-2015> <11:23:44>  gradient max                        0.00017380
 <Sep02-2015> <11:23:44>  gradient rms                        0.00005430
 <Sep02-2015> <11:23:44>  cart. step max                      0.01992802     0.01000000    F
 <Sep02-2015> <11:23:44>  cart. step rms                      0.00471505     0.00666667    T
  Coordinates in Geometry Cycle 24
    Atom         X           Y           Z   (Angstrom)
    1.Ag       12.021540   10.703630   10.057014
    2.Ag       11.533141    9.524816   12.841626
    3.S        13.446344    8.128324   13.853895
    4.S        10.890491   11.299198   14.573623
    5.S        13.759710   12.181038    9.440414
    6.S        10.291311    9.189841   10.734270
    7.C        13.160168   13.010977    7.887372
    8.C        10.300428   12.767860   13.632867
    9.C        10.792357    7.537288   10.041754
   10.C        14.958683    8.559460   12.891665
   11.H        12.232961   13.564751    8.071586
   12.H        12.992137   12.278567    7.089945
   13.H        13.938053   13.714912    7.566307
   14.H         9.302578   12.505970   13.266322
   15.H        10.965522   12.979012   12.790785
   16.H        10.235638   13.623639   14.310997
   17.H        10.206973    6.765848   10.554618
   18.H        11.859384    7.350495   10.190776
   19.H        10.559717    7.522496    8.971263
   20.H        14.735330    8.620706   11.822954
   21.H        15.731550    7.811081   13.090925
   22.H        15.285235    9.536609   13.262857
   23.H        13.181693    6.953076   13.225842
   24.H        12.121908   11.782859   14.884054
 <Sep02-2015> <11:23:44>  >>>> CORORT
 <Sep02-2015> <11:23:44>  >>>> FITINT
 <Sep02-2015> <11:23:45>  >>>> CLSMAT
 <Sep02-2015> <11:23:46>  >>>> ORTHON
 <Sep02-2015> <11:23:46>  >>>> GENPT
 <Sep02-2015> <11:23:46>  Acc.Num.Int.=   6.000
 <Sep02-2015> <11:23:46>  Reusing previous cell geometry for gradient smoothing.
 <Sep02-2015> <11:23:46>  Block Length= 128
 <Sep02-2015> <11:23:46>  >>>> PTBAS
 <Sep02-2015> <11:23:52>  >>>> SURPTS
 <Sep02-2015> <11:23:52>  combining surface points...
 <Sep02-2015> <11:23:52>  combining surface points...
 <Sep02-2015> <11:23:52>  combining surface points...
 <Sep02-2015> <11:23:52>  >>>> CYCLE
 <Sep02-2015> <11:23:55>    1
 <Sep02-2015> <11:23:58>    2  ErrMat   0.16849177  MaxEl -0.03573844
 <Sep02-2015> <11:24:02>    3  ErrMat   0.09022331  MaxEl -0.01691990
 <Sep02-2015> <11:24:05>    4  ErrMat   0.04673384  MaxEl  0.00923254
 <Sep02-2015> <11:24:09>    5  ErrMat   0.03547153  MaxEl -0.00909195
 <Sep02-2015> <11:24:12>    6  ErrMat   0.01208271  MaxEl  0.00288613
 <Sep02-2015> <11:24:16>    7  ErrMat   0.00406827  MaxEl  0.00077536
 <Sep02-2015> <11:24:19>    8  ErrMat   0.00129106  MaxEl -0.00021394
 <Sep02-2015> <11:24:23>    9  ErrMat   0.00042782  MaxEl  0.00009723
 <Sep02-2015> <11:24:27>   10  ErrMat   0.00022959  MaxEl -0.00004675
 <Sep02-2015> <11:24:30>   11  ErrMat   0.00004431  MaxEl -0.00000930
 <Sep02-2015> <11:24:34>   12  ErrMat   0.00001845  MaxEl  0.00000408
 <Sep02-2015> <11:24:37>   13  ErrMat   0.00000678  MaxEl  0.00000159
 <Sep02-2015> <11:24:41>   14  ErrMat   0.00000183  MaxEl -0.00000056
 <Sep02-2015> <11:24:41>  SCF converged
 <Sep02-2015> <11:24:44>   15  ErrMat   0.00000088  MaxEl  0.00000033
 <Sep02-2015> <11:24:45>  >>>> TOTEN
 <Sep02-2015> <11:24:53>  >>>> POPAN
 <Sep02-2015> <11:24:53>  >>>> DEBYE
 <Sep02-2015> <11:24:53>  >>>> AMETS
 <Sep02-2015> <11:24:53>  >>>> ENGRAD
 <Sep02-2015> <11:25:12>  current energy                               -3.90618046 Hartree
 <Sep02-2015> <11:25:12>  energy change                      -0.00007750     0.00010000    T
 <Sep02-2015> <11:25:12>  constrained gradient max            0.00017103     0.00100000    T
 <Sep02-2015> <11:25:12>  constrained gradient rms            0.00004317     0.00066667    T
 <Sep02-2015> <11:25:12>  gradient max                        0.00017103
 <Sep02-2015> <11:25:12>  gradient rms                        0.00004317
 <Sep02-2015> <11:25:12>  cart. step max                      0.01184268     0.01000000    F
 <Sep02-2015> <11:25:12>  cart. step rms                      0.00331064     0.00666667    T
  Coordinates in Geometry Cycle 25
    Atom         X           Y           Z   (Angstrom)
    1.Ag       12.021637   10.704340   10.057119
    2.Ag       11.532550    9.524716   12.842069
    3.S        13.445117    8.126286   13.853979
    4.S        10.891209   11.299252   14.573412
    5.S        13.756800   12.185693    9.441634
    6.S        10.292638    9.188683   10.733628
    7.C        13.159908   13.005517    7.882085
    8.C        10.305341   12.769337   13.632178
    9.C        10.795197    7.536659   10.040901
   10.C        14.958825    8.557047   12.893848
   11.H        12.229445   13.555985    8.059743
   12.H        12.998392   12.268477    7.087574
   13.H        13.935866   13.711403    7.560586
   14.H         9.307493   12.509730   13.264028
   15.H        10.972052   12.979417   12.791102
   16.H        10.241277   13.625061   14.310478
   17.H        10.210632    6.764574   10.553742
   18.H        11.862450    7.350910   10.189682
   19.H        10.562320    7.521938    8.970454
   20.H        14.736693    8.619868   11.824970
   21.H        15.730691    7.807619   13.093007
   22.H        15.286017    9.533410   13.266502
   23.H        13.180272    6.951787   13.224484
   24.H        12.122967   11.780795   14.885752
 <Sep02-2015> <11:25:12>  >>>> CORORT
 <Sep02-2015> <11:25:12>  >>>> FITINT
 <Sep02-2015> <11:25:13>  >>>> CLSMAT
 <Sep02-2015> <11:25:13>  >>>> ORTHON
 <Sep02-2015> <11:25:13>  >>>> GENPT
 <Sep02-2015> <11:25:13>  Acc.Num.Int.=   6.000
 <Sep02-2015> <11:25:13>  Reusing previous cell geometry for gradient smoothing.
 <Sep02-2015> <11:25:14>  Block Length= 128
 <Sep02-2015> <11:25:14>  >>>> PTBAS
 <Sep02-2015> <11:25:19>  >>>> SURPTS
 <Sep02-2015> <11:25:19>  combining surface points...
 <Sep02-2015> <11:25:19>  combining surface points...
 <Sep02-2015> <11:25:19>  combining surface points...
 <Sep02-2015> <11:25:19>  >>>> CYCLE
 <Sep02-2015> <11:25:22>    1
 <Sep02-2015> <11:25:26>    2  ErrMat   0.16861764  MaxEl -0.03557014
 <Sep02-2015> <11:25:29>    3  ErrMat   0.09024305  MaxEl -0.01685766
 <Sep02-2015> <11:25:33>    4  ErrMat   0.04689844  MaxEl  0.00922146
 <Sep02-2015> <11:25:37>    5  ErrMat   0.03546998  MaxEl -0.00904123
 <Sep02-2015> <11:25:40>    6  ErrMat   0.01212901  MaxEl  0.00286048
 <Sep02-2015> <11:25:44>    7  ErrMat   0.00409315  MaxEl  0.00077360
 <Sep02-2015> <11:25:47>    8  ErrMat   0.00133022  MaxEl  0.00021151
 <Sep02-2015> <11:25:51>    9  ErrMat   0.00042399  MaxEl  0.00008980
 <Sep02-2015> <11:25:54>   10  ErrMat   0.00031126  MaxEl -0.00006351
 <Sep02-2015> <11:25:58>   11  ErrMat   0.00009231  MaxEl  0.00001508
 <Sep02-2015> <11:26:02>   12  ErrMat   0.00005559  MaxEl  0.00001197
 <Sep02-2015> <11:26:05>   13  ErrMat   0.00001858  MaxEl -0.00000583
 <Sep02-2015> <11:26:09>   14  ErrMat   0.00000317  MaxEl -0.00000045
 <Sep02-2015> <11:26:09>  SCF converged
 <Sep02-2015> <11:26:12>   15  ErrMat   0.00000284  MaxEl -0.00000062
 <Sep02-2015> <11:26:12>  >>>> TOTEN
 <Sep02-2015> <11:26:20>  >>>> POPAN
 <Sep02-2015> <11:26:20>  >>>> DEBYE
 <Sep02-2015> <11:26:20>  >>>> AMETS
 <Sep02-2015> <11:26:20>  >>>> ENGRAD
 <Sep02-2015> <11:26:40>  current energy                               -3.90610510 Hartree
 <Sep02-2015> <11:26:40>  energy change                       0.00007536     0.00010000    T
 <Sep02-2015> <11:26:40>  constrained gradient max            0.00011077     0.00100000    T
 <Sep02-2015> <11:26:40>  constrained gradient rms            0.00003267     0.00066667    T
 <Sep02-2015> <11:26:40>  gradient max                        0.00011077
 <Sep02-2015> <11:26:40>  gradient rms                        0.00003267
 <Sep02-2015> <11:26:40>  cart. step max                      0.00594682     0.01000000    T
 <Sep02-2015> <11:26:40>  cart. step rms                      0.00182186     0.00666667    T
 <Sep02-2015> <11:26:40>  GEOMETRY CONVERGED
 <Sep02-2015> <11:26:40>  Calculating Energy Terms for Final Geometry
  Coordinates in Geometry Cycle 25
    Atom         X           Y           Z   (Angstrom)
    1.Ag       12.021637   10.704340   10.057119
    2.Ag       11.532550    9.524716   12.842069
    3.S        13.445117   8.126286   13.853979
    4.S        10.891209   11.299252   14.573412
    5.S        13.756800   12.185693    9.441634
    6.S        10.292638    9.188683   10.733628
    7.C        13.159908   13.005517    7.882085
    8.C        10.305341   12.769337   13.632178
    9.C        10.795197    7.536659   10.040901
   10.C       14.958825   8.557047  12.893848
   11.H        12.229445   13.555985    8.059743
   12.H        12.998392   12.268477   7.087574
   13.H        13.935866   13.711403    7.560586
   14.H         9.307493   12.509730   13.264028
   15.H        10.972052   12.979417   12.791102
   16.H        10.241277   13.625061   14.310478
   17.H        10.210632    6.764574   10.553742
   18.H        11.862450    7.350910   10.189682
   19.H        10.562320    7.521938    8.970454
   20.H        14.736693    8.619868   11.824970
   21.H        15.730691    7.807619   13.093007
   22.H        15.286017    9.533410   13.266502
   23.H        13.180272    6.951787   13.224484
   24.H        12.122967   11.780795   14.885752
 <Sep02-2015> <11:26:40>  >>>> CORORT
 <Sep02-2015> <11:26:40>  >>>> FITINT
 <Sep02-2015> <11:26:41>  >>>> CLSMAT
 <Sep02-2015> <11:26:41>  >>>> ORTHON
 <Sep02-2015> <11:26:41>  >>>> GENPT
 <Sep02-2015> <11:26:41>  Acc.Num.Int.=   6.000
 <Sep02-2015> <11:26:41>  Reusing previous cell geometry for gradient smoothing.
 <Sep02-2015> <11:26:41>  Block Length= 128
 <Sep02-2015> <11:26:42>  >>>> PTBAS
 <Sep02-2015> <11:26:47>  >>>> SURPTS
 <Sep02-2015> <11:26:47>  combining surface points...
 <Sep02-2015> <11:26:47>  combining surface points...
 <Sep02-2015> <11:26:47>  combining surface points...
 <Sep02-2015> <11:26:47>  >>>> CYCLE
 <Sep02-2015> <11:26:50>    1
 <Sep02-2015> <11:26:54>    2  ErrMat   0.16833941  MaxEl -0.03553884
 <Sep02-2015> <11:26:57>    3  ErrMat   0.09020520  MaxEl -0.01685254
 <Sep02-2015> <11:27:01>    4  ErrMat   0.04690379  MaxEl  0.00927582
 <Sep02-2015> <11:27:04>    5  ErrMat   0.03541319  MaxEl -0.00907279
 <Sep02-2015> <11:27:08>    6  ErrMat   0.01206644  MaxEl  0.00286974
 <Sep02-2015> <11:27:11>    7  ErrMat   0.00406804  MaxEl  0.00077045
 <Sep02-2015> <11:27:15>    8  ErrMat   0.00129276  MaxEl -0.00021554
 <Sep02-2015> <11:27:18>    9  ErrMat   0.00042812  MaxEl  0.00009662
 <Sep02-2015> <11:27:22>   10  ErrMat   0.00022948  MaxEl -0.00004571
 <Sep02-2015> <11:27:26>   11  ErrMat   0.00004815  MaxEl  0.00000928
 <Sep02-2015> <11:27:29>   12  ErrMat   0.00002756  MaxEl -0.00000869
 <Sep02-2015> <11:27:33>   13  ErrMat   0.00001972  MaxEl  0.00000722
 <Sep02-2015> <11:27:36>   14  ErrMat   0.00000936  MaxEl  0.00000327
 <Sep02-2015> <11:27:40>   15  ErrMat   0.00000488  MaxEl  0.00000184
 <Sep02-2015> <11:27:43>   16  ErrMat   0.00000043  MaxEl  0.00000012
 <Sep02-2015> <11:27:47>   17  ErrMat   0.00000095  MaxEl -0.00000034
 <Sep02-2015> <11:27:50>   18  ErrMat   0.00000010  MaxEl -0.00000002
 <Sep02-2015> <11:27:54>   19  ErrMat   0.00000005  MaxEl -0.00000002
 <Sep02-2015> <11:27:57>   20  ErrMat   0.00000002  MaxEl  0.00000001
 <Sep02-2015> <11:27:58>  SCF converged
 <Sep02-2015> <11:28:01>   21  ErrMat   0.00000000  MaxEl  0.00000000
 <Sep02-2015> <11:28:04>  >>>> TOTEN
 <Sep02-2015> <11:28:14>  >>>> POPAN
 <Sep02-2015> <11:28:14>  >>>> DEBYE
 <Sep02-2015> <11:28:14>  >>>> AMETS
 <Sep02-2015> <11:28:14>  >>>> POPUL
 <Sep02-2015> <11:28:14>   Bond Energy          -3.90610500 a.u.
 <Sep02-2015> <11:28:14>   Bond Energy        -106.29052505 eV
 <Sep02-2015> <11:28:14>   Bond Energy       -2451.12       kcal/mol
 <Sep02-2015> <11:28:14>  NORMAL TERMINATION
 <Sep02-2015> <11:28:14>  END
