
 *******************************************************************************
 *                                                                             *
 *  -------------------------------------                                      *
 *   Amsterdam Density Functional  (ADF)         2012.01   January 26, 2012    *
 *  -------------------------------------                                      *
 *                                               Build 201201262206            *
 *                                                                             *
 *                                                                             *
 *                            =====================                            *
 *                            |                   |                            *
 *                            |     D I R A C     |                            *
 *                            |                   |                            *
 *                            =====================                            *
 *                                                                             *
 *                                                                             *
 *   Online information and documentation:  http://www.scm.com                 *
 *   E-mail:  support@scm.com   info@scm.com                                   *
 *                                                                             *
 *   Scientific publications using ADF results must be properly referenced     *
 *   See the User Manuals (or the web site) for recommended citations          *
 *   The terms and conditions of the End User License Agreement apply to       *
 *   the use of ADF, http://www.scm.com/Sales/LicAgreement.html                *
 *                                                                             *
 *****************************  pentium64_linux  *******************************
 
 DIRAC 2012.01  RunTime: Sep02-2015 10:44:58  Nodes: 1  Procs: 1

 Temporary files are created in /tmp/2102160.1.batch.q/kid_0.EbX0dY

1
 HYDROGEN ATOM RELATIVISTIC, Point Nuc, A and c from libtc   
 N J RN H ZN XION ANUC CLIGHT
 5000    1100.00000000197.36710137  1.00000000  0.00000000    1.007825  0.1370360E+03
  PH   PHI     EPS        DEL        DELRVR
  0.30  0.30     2500.00  0.00001000  0.00001000
 IDIRC  NC1  NDEBU NPRIN  IPUN IRCOR IWCOR
   1   300     0     0     0     0     0
   XALPHA      XLATTER      RNUC
  0.70000000  0.00000000  0.00000000 Point Charge
   XN   XL   XJ      XE          XZ      XDELL
  1.0  0.0  0.5      -1.000       1.000     0.00000
 ICORP=  0  NPCL=  0  DEMP=0.00  PEPS=0.000000
 R(1)=  0.1000000E-08 D=  0.1005080E+01 RNUC=  0.0000000E+00
 converged at cycle   32  DENSITY AVERAGING    0.2400
  MAXIMUM ERROR IN R.V(R) IS   0.79874357E-05
 Q,EY,EV,EZ,ESUM,ETOT,RHO  0.100000E+01 -0.266614E+00 -0.619969E+00 -0.910779E+00 -0.203940E+00 -0.415998E+00  0.337036E-17


 DIRAC CALCULATION
1                    HYDROGEN ATOM RELATIVISTIC, Point Nuc, A and c from libtc


 EXCHANGE COEFFICIENT=  0.7000000           TAIL CORRECTION=  0.           NUCLEAR RADIUS=  0.000E+00
0                       ORBITAL    N    L    J     ELECTRONS     EIGENVALUE                DELTA OF EIGENV.

                          1S1/2  1.0  0.0  0.5     1.000       -0.2039397E+00                 0.2720093E-06


                                        NUCLEAR CHARGE=    1.000000
                            INTEGRAL OF CHARGE DENSITY=    1.000000
                           SUM OF THE ORBITAL ENERGIES=     -0.2039
                                          TOTAL ENERGY=     -0.4160
                                        KINETIC ENERGY=      0.4160
                             NUCLEAR ATTRACTION ENERGY=     -0.9108
                             ELECTRON REPULSION ENERGY=      0.2787
                                       EXCHANGE ENERGY=     -0.2000

 *******************************************************************************

                             D I R A C   E X I T
 NORMAL TERMINATION



 =================
 Timing Statistics
 =================
  
 Total Used :                     CPU=        0.13      System=        0.11     Elapsed=        0.33

 Calls  Section                     ( Mean, Percentage )
 ---------------------------------------------------------------------------------------------------
     2  ><      ................      0.00    0.00             0.00    0.00             0.00    0.00
     1  EXIT PROCEDURE .........      0.13  100.00             0.11  100.00             0.33  100.00


 Currently Open Files (EXIT00)
 ====================

 Unit    Access Format  Status   Type       Ident (file)
 -------------------------------------------------------
   3      SEQ    FORM   TRANSP  NORMAL      LOGFILE
                                          ( logfile )


 Buffered I/O statistics
 =======================
 Memory available:                    268435456
 Number of records fitting in memory:     64527
 Input : 100.0% of                            0  *4k bytes
 Output: 100.0% of                            0  *4k bytes
 Records from serial files evicted:           0
                    others evicted:           0
 Hash table lookups:          0 with          0 conflicts (100.00%)
(INPUT FILE)
Create H   file=/homes/cmaikens/adf2012.01/atomicdata/ZORA/TZP/H
XC
GGA Becke Perdew
End
relativistic ZORA
Corepotentials t12.rel
End Input

 *******************************************************************************
 *                                                                             *
 *  -------------------------------------                                      *
 *   Amsterdam Density Functional  (ADF)         2012.01   January 26, 2012    *
 *  -------------------------------------                                      *
 *                                               Build 201201262307            *
 *                                                                             *
 *                                                                             *
 *                              =================                              *
 *                              |               |                              *
 *                              |     A D F     |                              *
 *                              |               |                              *
 *                              =================                              *
 *                                                                             *
 *                                                                             *
 *   Online information and documentation:  http://www.scm.com                 *
 *   E-mail:  support@scm.com   info@scm.com                                   *
 *                                                                             *
 *   Scientific publications using ADF results must be properly referenced     *
 *   See the User Manuals (or the web site) for recommended citations          *
 *   The terms and conditions of the End User License Agreement apply to       *
 *   the use of ADF, http://www.scm.com/Sales/LicAgreement.html                *
 *                                                                             *
 **********************  pentium64_linux / platform_mpi  ***********************
 
 ADF 2012.01  RunTime: Sep02-2015 10:44:59  Nodes: 1  Procs: 1

 Temporary files are created in /tmp/2102160.1.batch.q/kid_0.2Apwtp

 Hydrogen (TZP)



 ===========================
 A T T A C H E D   F I L E S
 ===========================
  
 CREATE - Data File:    /homes/cmaikens/adf2012.01/atomicdata/ZORA/TZP/H
                        Hydrogen (TZP)
 Core Potentials:
         file : t12.rel



 ===============================
 M O D E L   P A R A M E T E R S
 ===============================
  
 DENSITY FUNCTIONAL POTENTIAL (scf)
    LDA:                               VWN                                      
    Gradient Corrections:              Becke88 Perdew86                        == Not Default ==

 SPIN  (restricted / unrestr.)
    Molecule:                          Restricted                               

 OTHER ASPECTS
    Relativistic Corrections:          scalar (ZORA,SAPA)                       *** SPECIAL ***

    Nuclear Charge Density Model:      Point Charge Nuclei                                                                                                                                                                                     
    Core Treatment:                    Frozen Orbital(s)                        

    Electric Field:                    ---                                      

    Hyperfine or Zeeman Interaction:   ---                                      



 =====================================
 S Y M M E T R Y ,   E L E C T R O N S
 =====================================
  
 Symmetry: ATOM

 Irreducible Representations, including subspecies
 -------------------------------------------------
 S
 P:x  P:y  P:z
 D:z2  D:x2-y2  D:xy  D:xz  D:yz
 F:z3  F:z  F:xyz  F:z2x  F:z2y  F:x  F:y


 Configuration of Valence Electrons
 ==================================

          Occupation Numbers
          -------------------------------------------------
 S        1
 P        0
 D        0
 F        0
          -------------------------------------------------

 Total:   1

 Net Charge: 0 (Nuclei minus Electrons)

 Preset values for MO occupations will be applied through SCF cycle no. 1000000
 Thereafter, the program will assign electrons to MOs that are spatially
 similar to the occupied MOs in a "reference" cycle ("KeepOrbitals").
 The reference cycle is always the PREVIOUS cycle: it will evolve with
 the SCF procedure.



 ================================
 (Slater-type)  F U N C T I O N S  ***  (Basis and Fit)  ***
 ================================
  

 Atom Type    1  (H)
 ==============

 Valence Basis Sets:   4
 -----------------------
   1 S    0.690000
   1 S    0.920000
   1 S    1.580000
   2 P    1.250000

 Charge Fitting Sets (for the computation of the Coulomb Potential):  11
 -----------------------------------------------------------------------
   1 S    3.160000
   1 S    2.090000
   1 S    1.380000
   2 S    1.500000
   2 P    4.000000
   2 P    2.650000
   2 P    1.750000
   3 D    4.000000
   3 D    2.500000
   4 F    3.000000
   5 G    4.000000


 BAS: List of all Elementary Cartesian Basis Functions
 =====================================================

 The numbering in the list below (to the right of the function characteristics) is referred
 to in print-outs of MO eigenvectors and Mulliken populations in the BAS representation
 (as contrasted to the SFO representation).

 Notes:
 1. The functions are characterized by a polynomial prefactor (powers of x,y,z and r) and
    an exponential decay factor alpha.
 2. Since the basis sets are specific for an atom TYPE, the individual functions occur on
    all atoms of that type.
 3. The word 'Core' in the left margin signals that it is a Core Function (CF) : not a
    degree of freedom in the valence set, but only used to ensure orthogonalization of
    the other valence basis functions on the frozen Core Orbitals.


 (power of) X  Y  Z  R     Alpha  on Atom
            ==========     =====     ==========

 H                                    1
                                  ---------------------------------------------------------------------------
            0  0  0  0     0.690      1
            0  0  0  0     0.920      2
            0  0  0  0     1.580      3
            1  0  0  0     1.250      4
            0  1  0  0     1.250      5
            0  0  1  0     1.250      6

 Total number of charge fitting functions (nprimf)        50
 Total number of Cartesian basis functions (naos)          6
 Total number of Cartesian core functions  (ncos)          0



 BAS: List of all Elementary Cartesian Basis Functions
 =====================================================

 The numbering in the list below (to the right of the function characteristics) is referred
 to in print-outs of MO eigenvectors and Mulliken populations in the BAS representation
 (as contrasted to the SFO representation).

 Notes:
 1. The functions are characterized by a polynomial prefactor (powers of x,y,z and r) and
    an exponential decay factor alpha.
 2. Since the basis sets are specific for an atom TYPE, the individual functions occur on
    all atoms of that type.
 3. The word 'Core' in the left margin signals that it is a Core Function (CF) : not a
    degree of freedom in the valence set, but only used to ensure orthogonalization of
    the other valence basis functions on the frozen Core Orbitals.


 (power of) X  Y  Z  R     Alpha  on Atom
            ==========     =====     ==========

 H                                    1
                                  ---------------------------------------------------------------------------
            0  0  0  0     0.690      1
            0  0  0  0     0.920      2
            0  0  0  0     1.580      3
            1  0  0  0     1.250      4
            0  1  0  0     1.250      5
            0  0  1  0     1.250      6
1
 ***************************************************************************************************



                                              ***********************
                                              *  T E C H N I C A L  *
                                              ***********************
  



 =============================================================
 P A R A L L E L I Z A T I O N  and  V E C T O R I Z A T I O N
 =============================================================
  
 Nr of parallel processes:                                1
 Maximum vector length in NumInt loops:                 128



 ===============
 I O  vs.  C P U  ***  (store numerical data on disk or recalculate)  ***
 ===============
  
 Basis functions:   recalculate when needed
 Fit functions:     recalculate when needed

 IO buffersize (Mb):                                    256.000000



 =====================
 S C F   U P D A T E S
 =====================
  
 Max. nr. of cycles:                               100
 Convergence criterion:                              0.0000000100
   secondary criterion:                              0.0000000100

 Mix parameter (when DIIS does not apply):           0.2000000000
 Special mix parameter for the first cycle:          1.0000000000


 DIIS (Direct Inversion in Iteration Space)
    Replace damping when SCF Error is below:         0.5000000000
    Apply anyway after SCF cycle:
                                                     5
    (Max.) nr. of expansion vectors:                10

    Upperbound on expansion coefficients:            5.0000000000
    (when exceeded, IterationSpace is re-built)
    2nd Upperbound on coefficients:                 25.0000000000
    (when exceeded, simple damping will be used)
 Automatic ElectronSmearing (in case of problematic SCF convergence) disabled



 =================
 P R E C I S I O N  ***  (General: NumInt, NeglectFunctionTails, ...)  ***
 =================
  

 NumInt:           Target precision:                10.0000000000
 -------           Initial precision:               10.0000000000
                   Min. precision (optimization):   10.0000000000

 Neglect Functions:          Basis functions:        0.1000000000E-11
 ------------------          Fit functions:          0.1000000000E-11



 ===========================
 L I N E A R   S C A L I N G
 ===========================
  

 Cut-off radii density fit:                        0.1000000000E-13
 Overlap cut-off criterion AO matrix elements:     0.1000000000E-11
 Cut-offs for Coulomb potential and fitted density:0.1000000000E-13
 Cut-off criterion for Coulomb multipole terms:    0.1000000000E-13
 Progressive Convergence parameter:                 0.000000000    
1
 ***************************************************************************************************



                                            ***************************
                                            *  C O M P U T A T I O N  *
                                            ***************************
  

 Number of elements of the density matrix on this node (used, total):        21        21



 ====================================================
 Numerical Integration : Voronoi Polyhedra (Te Velde)  ***  (parameters, tests)  ***
 ====================================================
  
 General Accuracy Parameter :                         10.00

 Symmetry used in the points section:  ATOM  


 Summary of the Symmetry Unique Points:
 --------------------------------------
    Nr. of used Symmetry Operators                     1

    Points in the Atomic Spheres                      35
    Points in the Atomic Polyhedra                     0
    Points in the Outer Region                         0
    ----------------------------------------------------
    Total                                             35

    Sum of Weights                                 33854.777883

 Total nr. of points:         35
 Nr. of blocks:                1
 Block length:                35
 Nr. of dummy points:          0


 Test of Precision of the Numerical Integration Grid
 ===================================================

 Integral of the Total Core Density:                   0.00000000000000



 =====
 S C F
 =====
  

 CYCLE    1
 orbitals (Q,E):
 ---------------
 S :1...3            ( 1.00    -0.2497)  ( 0.00     0.0898)  ( 0.00     1.5086)
 P :1...1            ( 0.00     0.3944)

 CYCLE    2
 d-Pmat  mean:  0.67E-02
 imax=      2: -0.32E-01
 orbitals (Q,E):
 ---------------
 S :1...2            ( 1.00    -0.2425)  ( 0.00     0.0938)
 P :1...1            ( 0.00     0.4004)

 CYCLE    3
 d-Pmat  mean:  0.92E-03
 imax=      2:  0.43E-02
 orbitals (Q,E):
 ---------------
 S :1...2            ( 1.00    -0.2436)  ( 0.00     0.0931)
 P :1...1            ( 0.00     0.3994)

 CYCLE    4
 d-Pmat  mean:  0.23E-05
 imax=      2:  0.70E-05
 orbitals (Q,E):
 ---------------
 S :1...2            ( 1.00    -0.2436)  ( 0.00     0.0931)
 P :1...1            ( 0.00     0.3994)

 CYCLE    5
 d-Pmat  mean:  0.33E-07
 imax=      2:  0.16E-06
 orbitals (Q,E):
 ---------------
 S :1...2            ( 1.00    -0.2436)  ( 0.00     0.0931)
 P :1...1            ( 0.00     0.3994)

 SCF CONVERGED

 CYCLE    6
1
 ***************************************************************************************************



                                                *******************
                                                *  R E S U L T S  *
                                                *******************
  
 *** Setting up for NEW gradients in focky
 *** Using FIT density in focky
 XCFun disabled
 XCFun disabled
 XCFun disabled

 Scaled ZORA Orbital Energies, per Irrep and Spin:
 =================================================
                        Occup              E (au)              E (eV)       Diff (eV) with prev. cycle
                        -----      --------------------        ------       --------------------------
 S
               1        1.000     -0.24363084608098E+00        -6.630               7.44E-12
               2        0.000      0.93092450943701E-01         2.533
               3        0.000      0.15150131697268E+01        41.226
 P
               1        0.000      0.39943374979256E+00        10.869


 Partially Occupied:
               1 S                -0.24363084608098E+00
  
 LUMO :        2 S                 0.93092450943701E-01
  


 Orbital Energies, all Irreps
 ========================================

 Irrep        no.  (spin)   Occup              E (au)                E (eV)
 ---------------------------------------------------------------------------
 S             1             1.00       -0.24363084608098E+00        -6.6295
 S             2             0.00        0.93092450943701E-01         2.5332
 P             1             0.00        0.39943374979256E+00        10.8691
 S             3             0.00        0.15150131697268E+01        41.2256


 Scaled ZORA Orbital Energies of the Core Orbitals:
 ==================================================

 (Note that the atoms are grouped by atomtype, see the labels, and may hence NOT be in input order)

 AtomType  Orbital  Atom                   E (au)                        E (eV)
 --------  -------  ----           --------------------        ----------------



 =======================================
 M U L L I K E N   P O P U L A T I O N S
 =======================================
  
 The survey below gives for each atom:
 a) the total charge (Z minus electrons)
 b) the net spin polarization (nr of electrons spin-A minus spin-B)
 c) for each spin the atomic electron valence density (integrated) per L-value.

 Atom              Charge    Spin density          S         P         D         F
 ----              ------    ------------       ------    ------    ------    ------
 1 H               0.0000                       1.0000    0.0000    0.0000    0.0000

 Populations of individual BAS functions
 ----------------------------------------
 1 H            0.1849  0.7118  0.1033  0.0000  0.0000  0.0000

 Gross Charges per Atom (Z minus electrons)
 ==========================================
             0.0000
 Net Total:  0.00000000


 Atom-Atom Population Matrix (off-diagonal elements not doubled)
 ===============================================================

     1 :     1.0000



 =============
 Dipole Moment  ***  (Debye)  ***
 =============
  
 Vector   :         0.00000000      0.00000000      0.00000000
 Magnitude:         0.00000000

 This molecular dipole moment is calculated with analytic integration



 =========================================
 Quadrupole Moment (Buckingham convention)  ***  (a.u.)  ***
 =========================================
  
      quad-xx        quad-xy        quad-xz        quad-yy        quad-yz        quad-zz
      0.00000000     0.00000000     0.00000000     0.00000000     0.00000000     0.00000000

 This molecular quadrupole moment is calculated with analytic integration



 ===============================================================================
 Electrostatic potential at the Nuclei due to valence electrons and other nuclei
 ===============================================================================
  
         Atom                  Potential
         ----                  ---------
     1)   H                   0.94545402
 
 
 ========================
 No memory problems found
 ========================
 
 Maximum number of active allocate calls:         308
 
 *******************************************************************************

                             A D F   E X I T
 NORMAL TERMINATION



 =================
 Timing Statistics
 =================
  
 Total Used :                     CPU=        0.12      System=        0.17     Elapsed=        0.42

 Calls  Section                     ( Mean, Percentage )
 ---------------------------------------------------------------------------------------------------
     3  ><      ................      0.00    0.00             0.00    0.00             0.00    0.62
     1  INIT    ................      0.00    0.00             0.01    5.88             0.12   29.47
     1  GEOMET  ................      0.00    0.00             0.13   76.47             0.14   32.43
     1  INPUTA  ................      0.00    0.00             0.00    0.00             0.00    0.56
     1  MAINSY  ................      0.00    0.00             0.01    5.88             0.01    1.35
     1  SYMFIT  ................      0.00    0.00             0.00    0.00             0.00    0.08
     1  CORORT  ................      0.00    0.00             0.00    0.00             0.00    0.06
     1  SYMORB  ................      0.00    0.00             0.00    0.00             0.00    0.14
     1  FITINT  ................      0.01    8.33             0.00    0.00             0.00    0.98
     1  CLSMAT  ................      0.00    0.00             0.00    0.00             0.00    0.07
     1  ORTHON  ................      0.00    0.00             0.00    0.00             0.00    0.25
     1  ETALOW  ................      0.00    0.00             0.00    0.00             0.00    0.11
     1  GENPT   ................      0.00    0.00             0.00    0.00             0.01    1.51
     1  PTBAS   ................      0.01    8.33             0.00    0.00             0.00    0.53
     6  FOCKY   ................      0.01   41.67             0.00    5.88             0.01   20.77
     6  FOCKTR  ................      0.00    0.00             0.00    0.00             0.00    0.39
     6  FOCKNM  ................      0.00    0.00             0.00    0.00             0.00    0.06
     6  SDIIS   ................      0.00    0.00             0.00    0.00             0.00    0.54
     6  EMERGE  ................      0.00   16.67             0.00    0.00             0.00    2.60
     1  COREPS  ................      0.00    0.00             0.01    5.88             0.00    0.82
     1  POPAN   ................      0.00    0.00             0.00    0.00             0.00    0.46
     1  DEBYE   ................      0.00    0.00             0.00    0.00             0.00    0.10
     1  QMPOT   ................      0.00    0.00             0.00    0.00             0.00    0.59
     1  EXIT PROCEDURE .........      0.03   25.00             0.00    0.00             0.02    5.51


 Currently Open Files (EXIT00)
 ====================

 Unit    Access Format  Status   Type       Ident (file)
 -------------------------------------------------------
   3      SEQ    FORM   TRANSP  NORMAL      LOGFILE
                                          ( logfile )


 Buffered I/O statistics
 =======================
 Memory available:                    268435456
 Number of records fitting in memory:     64527
 Input :   2.1% of                         2027  *4k bytes
 Output:  12.8% of                         1349  *4k bytes
 Records from serial files evicted:           0
                    others evicted:           0
 Hash table lookups:       9130 with          0 conflicts (  0.00%)

 ***************************************************************************************************
 (LOGFILE)
 <Sep02-2015> <10:44:58>  DIRAC 2012.01  RunTime: Sep02-2015 10:44:58  Nodes: 1  Procs: 1
 <Sep02-2015> <10:44:58>  NORMAL TERMINATION
 <Sep02-2015> <10:44:59>  END
 <Sep02-2015> <10:44:59>  ADF 2012.01  RunTime: Sep02-2015 10:44:59  Nodes: 1  Procs: 1
 <Sep02-2015> <10:44:59>  Hydrogen (TZP)
 <Sep02-2015> <10:44:59>  RunType   : CREATE
 <Sep02-2015> <10:44:59>  Net Charge: 0 (Nuclei minus Electrons)
 <Sep02-2015> <10:44:59>  Symmetry  : ATOM
 <Sep02-2015> <10:44:59>  >>>> CORORT
 <Sep02-2015> <10:44:59>  >>>> FITINT
 <Sep02-2015> <10:44:59>  >>>> CLSMAT
 <Sep02-2015> <10:44:59>  >>>> ORTHON
 <Sep02-2015> <10:44:59>  >>>> GENPT
 <Sep02-2015> <10:44:59>  Acc.Num.Int.=  10.000
 <Sep02-2015> <10:44:59>  Block Length=  35
 <Sep02-2015> <10:44:59>  >>>> PTBAS
 <Sep02-2015> <10:44:59>  >>>> CYCLE
 <Sep02-2015> <10:44:59>    1
 <Sep02-2015> <10:44:59>    2  ErrMat   0.00258453  MaxEl -0.00253172
 <Sep02-2015> <10:44:59>    3  ErrMat   0.00050241  MaxEl  0.00048214
 <Sep02-2015> <10:44:59>    4  ErrMat   0.00000638  MaxEl  0.00000533
 <Sep02-2015> <10:44:59>    5  ErrMat   0.00000001  MaxEl -0.00000001
 <Sep02-2015> <10:44:59>  SCF converged
 <Sep02-2015> <10:44:59>    6  ErrMat   0.00000000  MaxEl  0.00000000
 <Sep02-2015> <10:44:59>   Solutions with partially occupied orbitals may not be
 <Sep02-2015> <10:44:59>   lowest in energy. You might consider lowering the
 <Sep02-2015> <10:44:59>   symmetry in the input and explicitly specifying integer
 <Sep02-2015> <10:44:59>   occupations. In that case always check that you obtain
 <Sep02-2015> <10:44:59>   an aufbau solution.
 <Sep02-2015> <10:44:59>  >>>> POPAN
 <Sep02-2015> <10:44:59>  >>>> DEBYE
 <Sep02-2015> <10:44:59>  NORMAL TERMINATION
 <Sep02-2015> <10:44:59>  END

 *******************************************************************************
 *                                                                             *
 *  -------------------------------------                                      *
 *   Amsterdam Density Functional  (ADF)         2012.01   January 26, 2012    *
 *  -------------------------------------                                      *
 *                                               Build 201201262206            *
 *                                                                             *
 *                                                                             *
 *                            =====================                            *
 *                            |                   |                            *
 *                            |     D I R A C     |                            *
 *                            |                   |                            *
 *                            =====================                            *
 *                                                                             *
 *                                                                             *
 *   Online information and documentation:  http://www.scm.com                 *
 *   E-mail:  support@scm.com   info@scm.com                                   *
 *                                                                             *
 *   Scientific publications using ADF results must be properly referenced     *
 *   See the User Manuals (or the web site) for recommended citations          *
 *   The terms and conditions of the End User License Agreement apply to       *
 *   the use of ADF, http://www.scm.com/Sales/LicAgreement.html                *
 *                                                                             *
 *****************************  pentium64_linux  *******************************
 
 DIRAC 2012.01  RunTime: Sep02-2015 10:44:59  Nodes: 1  Procs: 1

 Temporary files are created in /tmp/2102160.1.batch.q/kid_0.fGJvx9

1
 SILVER ATOM 3d CORE RELATIVISTIC, Point Nuc, A and c from li
 N J RN H ZN XION ANUC CLIGHT
 5000   15100.00000000197.36710137 47.00000000  0.00000000  106.905093  0.1370360E+03
  PH   PHI     EPS        DEL        DELRVR
  0.30  0.30     2500.00  0.00001000  0.00001000
 IDIRC  NC1  NDEBU NPRIN  IPUN IRCOR IWCOR
   1   300     0     0     0     0     9
   XALPHA      XLATTER      RNUC
  0.70000000  0.00000000  0.00000000 Point Charge
   XN   XL   XJ      XE          XZ      XDELL
  1.0  0.0  0.5   -1500.000       2.000     0.00000
  2.0  0.0  0.5    -325.000       2.000     0.00000
  2.0  1.0  0.5    -325.000       2.000     0.00000
  2.0  1.0  1.5    -325.000       4.000     0.00000
  3.0  0.0  0.5     -70.000       2.000     0.00000
  3.0  1.0  0.5     -70.000       2.000     0.00000
  3.0  1.0  1.5     -70.000       4.000     0.00000
  3.0  2.0  1.5     -60.000       4.000     0.00000
  3.0  2.0  2.5     -60.000       6.000     0.00000
  4.0  0.0  0.5     -10.000       2.000     0.00000
  4.0  1.0  0.5     -10.000       2.000     0.00000
  4.0  1.0  1.5     -10.000       4.000     0.00000
  4.0  2.0  1.5      -1.000       4.000     0.00000
  4.0  2.0  2.5      -1.000       6.000     0.00000
  5.0  0.0  0.5      -0.500       1.000     0.00000
 ICORP=  0  NPCL=  0  DEMP=0.00  PEPS=0.000000
 R(1)=  0.1000000E-08 D=  0.1005080E+01 RNUC=  0.0000000E+00
 converged at cycle   37  DENSITY AVERAGING    0.1536
  MAXIMUM ERROR IN R.V(R) IS   0.73266205E-05
 Q,EY,EV,EZ,ESUM,ETOT,RHO  0.470000E+02 -0.196167E+03 -0.876390E+04 -0.128962E+05 -0.319969E+04 -0.531488E+04  0.734901E-11


 DIRAC CALCULATION
1                    SILVER ATOM 3d CORE RELATIVISTIC, Point Nuc, A and c from libtc


 EXCHANGE COEFFICIENT=  0.7000000           TAIL CORRECTION=  0.           NUCLEAR RADIUS=  0.000E+00
0                       ORBITAL    N    L    J     ELECTRONS     EIGENVALUE                DELTA OF EIGENV.

                          1S1/2  1.0  0.0  0.5     2.000       -0.9298445E+03                 0.2273091E-04
                          2S1/2  2.0  0.0  0.5     2.000       -0.1369628E+03                 0.3639498E-04
                          2P1/2  2.0  1.0  0.5     2.000       -0.1273849E+03                 0.3693015E-04
                          2P3/2  2.0  1.0  1.5     4.000       -0.1209397E+03                 0.3702741E-04
                          3S1/2  3.0  0.0  0.5     2.000       -0.2508734E+02                 0.1716513E-04
                          3P1/2  3.0  1.0  0.5     2.000       -0.2126622E+02                 0.1799299E-04
                          3P3/2  3.0  1.0  1.5     4.000       -0.2012758E+02                 0.1718269E-04
                          3D3/2  3.0  2.0  1.5     4.000       -0.1333155E+02                 0.2053383E-04
                          3D5/2  3.0  2.0  2.5     6.000       -0.1310170E+02                 0.2025648E-04
                          4S1/2  4.0  0.0  0.5     2.000       -0.3467319E+01                 0.6825765E-06
                          4P1/2  4.0  1.0  0.5     2.000       -0.2259901E+01                 0.4193829E-06
                          4P3/2  4.0  1.0  1.5     4.000       -0.2069785E+01                 0.2705207E-06
                          4D3/2  4.0  2.0  1.5     4.000       -0.2640772E+00                 0.3034642E-06
                          4D5/2  4.0  2.0  2.5     6.000       -0.2433402E+00                 0.3285318E-06
                          5S1/2  5.0  0.0  0.5     1.000       -0.1450750E+00                 0.2931479E-06


                                        NUCLEAR CHARGE=   47.000000
                            INTEGRAL OF CHARGE DENSITY=   47.000000
                           SUM OF THE ORBITAL ENERGIES=  -3199.6921
                                          TOTAL ENERGY=  -5314.8812
                                        KINETIC ENERGY=   5564.2055
                             NUCLEAR ATTRACTION ENERGY= -12896.1922
                             ELECTRON REPULSION ENERGY=   2164.2310
                                       EXCHANGE ENERGY=   -147.1255

 *******************************************************************************

                             D I R A C   E X I T
 NORMAL TERMINATION



 =================
 Timing Statistics
 =================
  
 Total Used :                     CPU=        0.62      System=        0.12     Elapsed=        0.93

 Calls  Section                     ( Mean, Percentage )
 ---------------------------------------------------------------------------------------------------
     2  ><      ................      0.00    0.00             0.00    0.00             0.00    0.00
     1  EXIT PROCEDURE .........      0.62  100.00             0.12  100.00             0.93  100.00


 Currently Open Files (EXIT00)
 ====================

 Unit    Access Format  Status   Type       Ident (file)
 -------------------------------------------------------
   3      SEQ    FORM   TRANSP  NORMAL      LOGFILE
                                          ( logfile )


 Buffered I/O statistics
 =======================
 Memory available:                    268435456
 Number of records fitting in memory:     64527
 Input : 100.0% of                            0  *4k bytes
 Output: 100.0% of                            0  *4k bytes
 Records from serial files evicted:           0
                    others evicted:           0
 Hash table lookups:          0 with          0 conflicts (100.00%)
(INPUT FILE)
Create Ag   file=/homes/cmaikens/adf2012.01/atomicdata/ZORA/TZP/Ag.3d
XC
GGA Becke Perdew
End
relativistic ZORA
Corepotentials t12.rel
End Input

 *******************************************************************************
 *                                                                             *
 *  -------------------------------------                                      *
 *   Amsterdam Density Functional  (ADF)         2012.01   January 26, 2012    *
 *  -------------------------------------                                      *
 *                                               Build 201201262307            *
 *                                                                             *
 *                                                                             *
 *                              =================                              *
 *                              |               |                              *
 *                              |     A D F     |                              *
 *                              |               |                              *
 *                              =================                              *
 *                                                                             *
 *                                                                             *
 *   Online information and documentation:  http://www.scm.com                 *
 *   E-mail:  support@scm.com   info@scm.com                                   *
 *                                                                             *
 *   Scientific publications using ADF results must be properly referenced     *
 *   See the User Manuals (or the web site) for recommended citations          *
 *   The terms and conditions of the End User License Agreement apply to       *
 *   the use of ADF, http://www.scm.com/Sales/LicAgreement.html                *
 *                                                                             *
 **********************  pentium64_linux / platform_mpi  ***********************
 
 ADF 2012.01  RunTime: Sep02-2015 10:45:00  Nodes: 1  Procs: 1

 Temporary files are created in /tmp/2102160.1.batch.q/kid_0.NP6zig

 Silver (TZP, 3d frozen)



 ===========================
 A T T A C H E D   F I L E S
 ===========================
  
 CREATE - Data File:    /homes/cmaikens/adf2012.01/atomicdata/ZORA/TZP/Ag.3d
                        Silver (TZP, 3d frozen)
 Core Potentials:
         file : t12.rel



 ===============================
 M O D E L   P A R A M E T E R S
 ===============================
  
 DENSITY FUNCTIONAL POTENTIAL (scf)
    LDA:                               VWN                                      
    Gradient Corrections:              Becke88 Perdew86                        == Not Default ==

 SPIN  (restricted / unrestr.)
    Molecule:                          Restricted                               

 OTHER ASPECTS
    Relativistic Corrections:          scalar (ZORA,SAPA)                       *** SPECIAL ***

    Nuclear Charge Density Model:      Point Charge Nuclei                                                                                                                                                                                     
    Core Treatment:                    Frozen Orbital(s)                        

    Electric Field:                    ---                                      

    Hyperfine or Zeeman Interaction:   ---                                      



 =====================================
 S Y M M E T R Y ,   E L E C T R O N S
 =====================================
  
 Symmetry: ATOM

 Irreducible Representations, including subspecies
 -------------------------------------------------
 S
 P:x  P:y  P:z
 D:z2  D:x2-y2  D:xy  D:xz  D:yz
 F:z3  F:z  F:xyz  F:z2x  F:z2y  F:x  F:y


 Configuration of Valence Electrons
 ==================================

          Occupation Numbers
          -------------------------------------------------
 S        2 1
 P        6
 D        10
 F        0
          -------------------------------------------------

 Total:   19

 Net Charge: 0 (Nuclei minus Electrons)

 Preset values for MO occupations will be applied through SCF cycle no. 1000000
 Thereafter, the program will assign electrons to MOs that are spatially
 similar to the occupied MOs in a "reference" cycle ("KeepOrbitals").
 The reference cycle is always the PREVIOUS cycle: it will evolve with
 the SCF procedure.



 ================================
 (Slater-type)  F U N C T I O N S  ***  (Basis and Fit)  ***
 ================================
  

 Atom Type    1  (Ag)
 ==============

 Valence Basis Sets:  18
 -----------------------
   1 S   30.800000
   2 S   20.300000
   3 S    9.550000
   2 P   21.100000
   3 P   10.100000
   3 D   11.650000
   4 S    6.350000
   4 S    4.050000
   5 S    2.600000
   5 S    1.550000
   5 S    0.950000
   4 P    6.150000
   4 P    4.150000
   4 P    2.900000
   4 D    4.750000
   4 D    2.600000
   4 D    1.380000
   5 P    1.550000

 Frozen Core Shells
 ------------------
    S:  3
    P:  2
    D:  1

 Charge Fitting Sets (for the computation of the Coulomb Potential):  51
 -----------------------------------------------------------------------
   1 S   61.600000
   1 S   36.350000
   2 S   39.760000
   3 S   38.850000
   3 S   27.540000
   4 S   25.820000
   4 S   19.060000
   5 S   17.540000
   5 S   13.330000
   6 S   12.140000
   6 S    9.440000
   7 S    8.550000
   7 S    6.760000
   8 S    6.110000
   8 S    4.900000
   8 S    3.930000
   9 S    3.550000
   9 S    2.880000
   9 S    2.340000
   9 S    1.900000
   2 P   51.900000
   3 P   41.280000
   4 P   32.450000
   5 P   25.520000
   6 P   20.150000
   6 P   13.650000
   7 P   10.840000
   7 P    7.550000
   8 P    6.030000
   8 P    4.290000
   9 P    3.450000
   9 P    2.500000
   3 D   42.450000
   4 D   30.180000
   5 D   21.700000
   6 D   15.790000
   6 D    9.890000
   7 D    7.280000
   7 D    4.710000
   8 D    3.510000
   8 D    2.330000
   4 F   32.800000
   5 F   21.490000
   6 F   14.360000
   6 F    8.280000
   7 F    5.640000
   7 F    3.380000
   5 G   23.300000
   6 G   11.600000
   7 G    6.010000
   7 G    2.760000


 BAS: List of all Elementary Cartesian Basis Functions
 =====================================================

 The numbering in the list below (to the right of the function characteristics) is referred
 to in print-outs of MO eigenvectors and Mulliken populations in the BAS representation
 (as contrasted to the SFO representation).

 Notes:
 1. The functions are characterized by a polynomial prefactor (powers of x,y,z and r) and
    an exponential decay factor alpha.
 2. Since the basis sets are specific for an atom TYPE, the individual functions occur on
    all atoms of that type.
 3. The word 'Core' in the left margin signals that it is a Core Function (CF) : not a
    degree of freedom in the valence set, but only used to ensure orthogonalization of
    the other valence basis functions on the frozen Core Orbitals.


 (power of) X  Y  Z  R     Alpha  on Atom
            ==========     =====     ==========

 Ag                                   1
                                  ---------------------------------------------------------------------------
    Core    0  0  0  0    30.800      1
    Core    0  0  0  1    20.300      2
    Core    0  0  0  2     9.550      3
    Core    1  0  0  0    21.100      4
    Core    0  1  0  0    21.100      5
    Core    0  0  1  0    21.100      6
    Core    1  0  0  1    10.100      7
    Core    0  1  0  1    10.100      8
    Core    0  0  1  1    10.100      9
    Core    2  0  0  0    11.650     10
    Core    1  1  0  0    11.650     11
    Core    1  0  1  0    11.650     12
    Core    0  2  0  0    11.650     13
    Core    0  1  1  0    11.650     14
    Core    0  0  2  0    11.650     15
            0  0  0  3     6.350     16
            0  0  0  3     4.050     17
            0  0  0  4     2.600     18
            0  0  0  4     1.550     19
            0  0  0  4     0.950     20
            1  0  0  2     6.150     21
            0  1  0  2     6.150     22
            0  0  1  2     6.150     23
            1  0  0  2     4.150     24
            0  1  0  2     4.150     25
            0  0  1  2     4.150     26
            1  0  0  2     2.900     27
            0  1  0  2     2.900     28
            0  0  1  2     2.900     29
            2  0  0  1     4.750     30
            1  1  0  1     4.750     31
            1  0  1  1     4.750     32
            0  2  0  1     4.750     33
            0  1  1  1     4.750     34
            0  0  2  1     4.750     35
            2  0  0  1     2.600     36
            1  1  0  1     2.600     37
            1  0  1  1     2.600     38
            0  2  0  1     2.600     39
            0  1  1  1     2.600     40
            0  0  2  1     2.600     41
            2  0  0  1     1.380     42
            1  1  0  1     1.380     43
            1  0  1  1     1.380     44
            0  2  0  1     1.380     45
            0  1  1  1     1.380     46
            0  0  2  1     1.380     47
            1  0  0  3     1.550     48
            0  1  0  3     1.550     49
            0  0  1  3     1.550     50

 Total number of charge fitting functions (nprimf)       230
 Total number of Cartesian basis functions (naos)         50
 Total number of Cartesian core functions  (ncos)         15



 BAS: List of all Elementary Cartesian Basis Functions
 =====================================================

 The numbering in the list below (to the right of the function characteristics) is referred
 to in print-outs of MO eigenvectors and Mulliken populations in the BAS representation
 (as contrasted to the SFO representation).

 Notes:
 1. The functions are characterized by a polynomial prefactor (powers of x,y,z and r) and
    an exponential decay factor alpha.
 2. Since the basis sets are specific for an atom TYPE, the individual functions occur on
    all atoms of that type.
 3. The word 'Core' in the left margin signals that it is a Core Function (CF) : not a
    degree of freedom in the valence set, but only used to ensure orthogonalization of
    the other valence basis functions on the frozen Core Orbitals.


 (power of) X  Y  Z  R     Alpha  on Atom
            ==========     =====     ==========

 Ag                                   1
                                  ---------------------------------------------------------------------------
    Core    0  0  0  0    30.800      1
    Core    0  0  0  1    20.300      2
    Core    0  0  0  2     9.550      3
    Core    1  0  0  0    21.100      4
    Core    0  1  0  0    21.100      5
    Core    0  0  1  0    21.100      6
    Core    1  0  0  1    10.100      7
    Core    0  1  0  1    10.100      8
    Core    0  0  1  1    10.100      9
    Core    2  0  0  0    11.650     10
    Core    1  1  0  0    11.650     11
    Core    1  0  1  0    11.650     12
    Core    0  2  0  0    11.650     13
    Core    0  1  1  0    11.650     14
    Core    0  0  2  0    11.650     15
            0  0  0  3     6.350     16
            0  0  0  3     4.050     17
            0  0  0  4     2.600     18
            0  0  0  4     1.550     19
            0  0  0  4     0.950     20
            1  0  0  2     6.150     21
            0  1  0  2     6.150     22
            0  0  1  2     6.150     23
            1  0  0  2     4.150     24
            0  1  0  2     4.150     25
            0  0  1  2     4.150     26
            1  0  0  2     2.900     27
            0  1  0  2     2.900     28
            0  0  1  2     2.900     29
            2  0  0  1     4.750     30
            1  1  0  1     4.750     31
            1  0  1  1     4.750     32
            0  2  0  1     4.750     33
            0  1  1  1     4.750     34
            0  0  2  1     4.750     35
            2  0  0  1     2.600     36
            1  1  0  1     2.600     37
            1  0  1  1     2.600     38
            0  2  0  1     2.600     39
            0  1  1  1     2.600     40
            0  0  2  1     2.600     41
            2  0  0  1     1.380     42
            1  1  0  1     1.380     43
            1  0  1  1     1.380     44
            0  2  0  1     1.380     45
            0  1  1  1     1.380     46
            0  0  2  1     1.380     47
            1  0  0  3     1.550     48
            0  1  0  3     1.550     49
            0  0  1  3     1.550     50
1
 ***************************************************************************************************



                                              ***********************
                                              *  T E C H N I C A L  *
                                              ***********************
  



 =============================================================
 P A R A L L E L I Z A T I O N  and  V E C T O R I Z A T I O N
 =============================================================
  
 Nr of parallel processes:                                1
 Maximum vector length in NumInt loops:                 128



 ===============
 I O  vs.  C P U  ***  (store numerical data on disk or recalculate)  ***
 ===============
  
 Basis functions:   recalculate when needed
 Fit functions:     recalculate when needed

 IO buffersize (Mb):                                    256.000000



 =====================
 S C F   U P D A T E S
 =====================
  
 Max. nr. of cycles:                               100
 Convergence criterion:                              0.0000000100
   secondary criterion:                              0.0000000100

 Mix parameter (when DIIS does not apply):           0.2000000000
 Special mix parameter for the first cycle:          1.0000000000


 DIIS (Direct Inversion in Iteration Space)
    Replace damping when SCF Error is below:         0.5000000000
    Apply anyway after SCF cycle:
                                                     5
    (Max.) nr. of expansion vectors:                10

    Upperbound on expansion coefficients:            5.0000000000
    (when exceeded, IterationSpace is re-built)
    2nd Upperbound on coefficients:                 25.0000000000
    (when exceeded, simple damping will be used)
 Automatic ElectronSmearing (in case of problematic SCF convergence) disabled



 =================
 P R E C I S I O N  ***  (General: NumInt, NeglectFunctionTails, ...)  ***
 =================
  

 NumInt:           Target precision:                10.0000000000
 -------           Initial precision:               10.0000000000
                   Min. precision (optimization):   10.0000000000

 Neglect Functions:          Basis functions:        0.1000000000E-11
 ------------------          Fit functions:          0.1000000000E-11



 ===========================
 L I N E A R   S C A L I N G
 ===========================
  

 Cut-off radii density fit:                        0.1000000000E-13
 Overlap cut-off criterion AO matrix elements:     0.1000000000E-11
 Cut-offs for Coulomb potential and fitted density:0.1000000000E-13
 Cut-off criterion for Coulomb multipole terms:    0.1000000000E-13
 Progressive Convergence parameter:                 0.000000000    
1
 ***************************************************************************************************



                                            ***************************
                                            *  C O M P U T A T I O N  *
                                            ***************************
  

 Number of elements of the density matrix on this node (used, total):      1275      1275



 ====================================================
 Numerical Integration : Voronoi Polyhedra (Te Velde)  ***  (parameters, tests)  ***
 ====================================================
  
 General Accuracy Parameter :                         10.00

 Symmetry used in the points section:  ATOM  


 Summary of the Symmetry Unique Points:
 --------------------------------------
    Nr. of used Symmetry Operators                     1

    Points in the Atomic Spheres                      94
    Points in the Atomic Polyhedra                     0
    Points in the Outer Region                         0
    ----------------------------------------------------
    Total                                             94

    Sum of Weights                                114259.875357

 Total nr. of points:         94
 Nr. of blocks:                1
 Block length:                94
 Nr. of dummy points:          0


 Test of Precision of the Numerical Integration Grid
 ===================================================

 Integral of the Total Core Density:                  27.99999992831499
 Relative Error:                                      -2.560E-09



 =====
 S C F
 =====
  

 CYCLE    1
 orbitals (Q,E):
 ---------------
 S :1...5            ( 2.00    -3.4932)  ( 1.00    -0.1678)  ( 0.00     0.0495)  ( 0.00     0.5481)
                     ( 0.00     4.1890)
 P :1...4            ( 6.00    -2.1702)  ( 0.00     0.0010)  ( 0.00     0.9464)  ( 0.00     6.3133)
 D :1...3            (10.00    -0.2809)  ( 0.00     0.2936)  ( 0.00     2.2251)

 CYCLE    2
 d-Pmat  mean:  0.22E-02
 imax=     33: -0.66E-02
 orbitals (Q,E):
 ---------------
 S :1...3            ( 2.00    -3.4789)  ( 1.00    -0.1655)  ( 0.00     0.0499)
 P :1...2            ( 6.00    -2.1568)  ( 0.00     0.0025)
 D :1...2            (10.00    -0.2711)  ( 0.00     0.2958)

 CYCLE    3
 d-Pmat  mean:  0.14E-02
 imax=     35:  0.43E-02
 orbitals (Q,E):
 ---------------
 S :1...3            ( 2.00    -3.4878)  ( 1.00    -0.1670)  ( 0.00     0.0494)
 P :1...2            ( 6.00    -2.1651)  ( 0.00     0.0014)
 D :1...2            (10.00    -0.2771)  ( 0.00     0.2943)

 CYCLE    4
 d-Pmat  mean:  0.75E-04
 imax=     18:  0.23E-03
 orbitals (Q,E):
 ---------------
 S :1...3            ( 2.00    -3.4884)  ( 1.00    -0.1672)  ( 0.00     0.0493)
 P :1...2            ( 6.00    -2.1657)  ( 0.00     0.0012)
 D :1...2            (10.00    -0.2776)  ( 0.00     0.2941)

 CYCLE    5
 d-Pmat  mean:  0.28E-05
 imax=     18: -0.99E-05
 orbitals (Q,E):
 ---------------
 S :1...3            ( 2.00    -3.4884)  ( 1.00    -0.1672)  ( 0.00     0.0493)
 P :1...2            ( 6.00    -2.1657)  ( 0.00     0.0012)
 D :1...2            (10.00    -0.2775)  ( 0.00     0.2941)

 CYCLE    6
 d-Pmat  mean:  0.17E-07
 imax=     19: -0.13E-06
 orbitals (Q,E):
 ---------------
 S :1...3            ( 2.00    -3.4884)  ( 1.00    -0.1672)  ( 0.00     0.0493)
 P :1...2            ( 6.00    -2.1657)  ( 0.00     0.0012)
 D :1...2            (10.00    -0.2775)  ( 0.00     0.2941)

 CYCLE    7
 d-Pmat  mean:  0.11E-08
 imax=     19: -0.11E-07
 orbitals (Q,E):
 ---------------
 S :1...3            ( 2.00    -3.4884)  ( 1.00    -0.1672)  ( 0.00     0.0493)
 P :1...2            ( 6.00    -2.1657)  ( 0.00     0.0012)
 D :1...2            (10.00    -0.2775)  ( 0.00     0.2941)

 SCF CONVERGED

 CYCLE    8
1
 ***************************************************************************************************



                                                *******************
                                                *  R E S U L T S  *
                                                *******************
  
 *** Setting up for NEW gradients in focky
 *** Using FIT density in focky
 XCFun disabled
 XCFun disabled
 XCFun disabled

 Scaled ZORA Orbital Energies, per Irrep and Spin:
 =================================================
                        Occup              E (au)              E (eV)       Diff (eV) with prev. cycle
                        -----      --------------------        ------       --------------------------
 S
               1        2.000     -0.34883937327255E+01       -94.924               1.01E-09
               2        1.000     -0.16721774376307E+00        -4.550               8.48E-10
               3        0.000      0.49292090859751E-01         1.341
               4        0.000      0.54900113066203E+00        14.939
               5        0.000      0.41923034015691E+01       114.078
 P
               1        6.000     -0.21656535049739E+01       -58.930               1.04E-09
               2        0.000      0.12312059741376E-02         0.034
               3        0.000      0.94805018589873E+00        25.798
               4        0.000      0.63168566721937E+01       171.890
 D
               1       10.000     -0.27753746737237E+00        -7.552               1.07E-09
               2        0.000      0.29412398526233E+00         8.004
               3        0.000      0.22279871540449E+01        60.627


 Partially Occupied:
               2 S                -0.16721774376307E+00
  
 HOMO :        1 D                -0.27753746737237E+00
 LUMO :        2 P                 0.12312059741376E-02
  


 Orbital Energies, all Irreps
 ========================================

 Irrep        no.  (spin)   Occup              E (au)                E (eV)
 ---------------------------------------------------------------------------
 S             1             2.00       -0.34883937327255E+01       -94.9240
 P             1             6.00       -0.21656535049739E+01       -58.9304
 D             1            10.00       -0.27753746737237E+00        -7.5522
 S             2             1.00       -0.16721774376307E+00        -4.5502
 P             2             0.00        0.12312059741376E-02         0.0335
 S             3             0.00        0.49292090859751E-01         1.3413
 D             2             0.00        0.29412398526233E+00         8.0035
 S             4             0.00        0.54900113066203E+00        14.9391
 P             3             0.00        0.94805018589873E+00        25.7978
 D             3             0.00        0.22279871540449E+01        60.6266
 S             5             0.00        0.41923034015691E+01       114.0784
 P             4             0.00        0.63168566721937E+01       171.8904


 Scaled ZORA Orbital Energies of the Core Orbitals:
 ==================================================

 (Note that the atoms are grouped by atomtype, see the labels, and may hence NOT be in input order)

 AtomType  Orbital  Atom                   E (au)                        E (eV)
 --------  -------  ----           --------------------        ----------------
 Ag          1S        1          -0.93051917515589E+03              -25320.715
             2S        1          -0.13700540306455E+03               -3728.107
             3S        1          -0.25114511935225E+02                -683.401
             2P        1          -0.12286153862350E+03               -3343.233
             3P        1          -0.20498924322833E+02                -557.804
             3D        1          -0.13198949396919E+02                -359.162



 =======================================
 M U L L I K E N   P O P U L A T I O N S
 =======================================
  
 The survey below gives for each atom:
 a) the total charge (Z minus electrons)
 b) the net spin polarization (nr of electrons spin-A minus spin-B)
 c) for each spin the atomic electron valence density (integrated) per L-value.

 Atom              Charge    Spin density          S         P         D         F
 ----              ------    ------------       ------    ------    ------    ------
 1 Ag              0.0000                       3.0000    6.0000   10.0000    0.0000

 Populations of individual BAS functions
 ----------------------------------------
 1 Ag          -0.0085  0.0044 -0.0712  0.0003  0.0003  0.0003  0.0270  0.0270  0.0270  0.0387
                0.0580  0.0580  0.0387  0.0580  0.0387  1.3215  0.7613  0.3605  0.5376  0.0943
                0.7450  0.7450  0.7450  1.0681  1.0681  1.0681  0.1587  0.1587  0.1587  0.5515
                0.8273  0.8273  0.5515  0.8273  0.5515  0.6409  0.9614  0.9614  0.6409  0.9614
                0.6409  0.1022  0.1533  0.1533  0.1022  0.1533  0.1022  0.0010  0.0010  0.0010

 Gross Charges per Atom (Z minus electrons)
 ==========================================
             0.0000
 Net Total:  0.00000000


 Atom-Atom Population Matrix (off-diagonal elements not doubled)
 ===============================================================

     1 :    19.0000



 =============
 Dipole Moment  ***  (Debye)  ***
 =============
  
 Vector   :         0.00000000      0.00000000      0.00000000
 Magnitude:         0.00000000

 This molecular dipole moment is calculated with analytic integration



 =========================================
 Quadrupole Moment (Buckingham convention)  ***  (a.u.)  ***
 =========================================
  
      quad-xx        quad-xy        quad-xz        quad-yy        quad-yz        quad-zz
      0.00000000     0.00000000     0.00000000     0.00000000     0.00000000     0.00000000

 This molecular quadrupole moment is calculated with analytic integration



 ===============================================================================
 Electrostatic potential at the Nuclei due to valence electrons and other nuclei
 ===============================================================================
  
         Atom                  Potential
         ----                  ---------
     1)   Ag                 21.10983739
 
 
 ========================
 No memory problems found
 ========================
 
 Maximum number of active allocate calls:         391
 
 *******************************************************************************

                             A D F   E X I T
 NORMAL TERMINATION



 =================
 Timing Statistics
 =================
  
 Total Used :                     CPU=        0.27      System=        0.16     Elapsed=        0.46

 Calls  Section                     ( Mean, Percentage )
 ---------------------------------------------------------------------------------------------------
     3  ><      ................      0.00    0.00             0.00    0.00             0.00    0.57
     1  INIT    ................      0.00    0.00             0.01    6.25             0.04    9.53
     1  GEOMET  ................      0.03   11.11             0.10   62.50             0.13   27.08
     1  INPUTA  ................      0.00    0.00             0.00    0.00             0.00    0.62
     1  MAINSY  ................      0.01    3.70             0.02   12.50             0.02    4.76
     1  SYMFIT  ................      0.00    0.00             0.00    0.00             0.00    0.08
     1  CORORT  ................      0.00    0.00             0.00    0.00             0.00    0.12
     1  SYMORB  ................      0.00    0.00             0.00    0.00             0.00    0.19
     1  FITINT  ................      0.00    0.00             0.00    0.00             0.01    1.46
     1  CLSMAT  ................      0.00    0.00             0.00    0.00             0.00    0.08
     1  ORTHON  ................      0.01    3.70             0.00    0.00             0.00    0.32
     1  ETALOW  ................      0.00    0.00             0.00    0.00             0.00    0.14
     1  GENPT   ................      0.01    3.70             0.00    0.00             0.02    3.48
     1  PTBAS   ................      0.01    3.70             0.00    0.00             0.00    0.73
     8  FOCKY   ................      0.02   48.15             0.00   18.75             0.02   33.79
     8  FOCKTR  ................      0.00    0.00             0.00    0.00             0.00    0.57
     8  FOCKNM  ................      0.00    0.00             0.00    0.00             0.00    0.07
     8  SDIIS   ................      0.00    0.00             0.00    0.00             0.00    0.69
     8  EMERGE  ................      0.00    7.41             0.00    0.00             0.00    5.33
     1  COREPS  ................      0.02    7.41             0.00    0.00             0.02    3.50
     1  POPAN   ................      0.00    0.00             0.00    0.00             0.00    0.64
     1  DEBYE   ................      0.00    0.00             0.00    0.00             0.00    0.18
     1  QMPOT   ................      0.01    3.70             0.00    0.00             0.00    1.05
     1  EXIT PROCEDURE .........      0.02    7.41             0.00    0.00             0.02    5.02


 Currently Open Files (EXIT00)
 ====================

 Unit    Access Format  Status   Type       Ident (file)
 -------------------------------------------------------
   3      SEQ    FORM   TRANSP  NORMAL      LOGFILE
                                          ( logfile )


 Buffered I/O statistics
 =======================
 Memory available:                    268435456
 Number of records fitting in memory:     64527
 Input :   1.3% of                         3830  *4k bytes
 Output:  10.3% of                         1959  *4k bytes
 Records from serial files evicted:           0
                    others evicted:           0
 Hash table lookups:      15695 with          0 conflicts (  0.00%)

 ***************************************************************************************************
 (LOGFILE)
 <Sep02-2015> <10:44:58>  DIRAC 2012.01  RunTime: Sep02-2015 10:44:58  Nodes: 1  Procs: 1
 <Sep02-2015> <10:44:58>  NORMAL TERMINATION
 <Sep02-2015> <10:44:59>  END
 <Sep02-2015> <10:44:59>  ADF 2012.01  RunTime: Sep02-2015 10:44:59  Nodes: 1  Procs: 1
 <Sep02-2015> <10:44:59>  Hydrogen (TZP)
 <Sep02-2015> <10:44:59>  RunType   : CREATE
 <Sep02-2015> <10:44:59>  Net Charge: 0 (Nuclei minus Electrons)
 <Sep02-2015> <10:44:59>  Symmetry  : ATOM
 <Sep02-2015> <10:44:59>  >>>> CORORT
 <Sep02-2015> <10:44:59>  >>>> FITINT
 <Sep02-2015> <10:44:59>  >>>> CLSMAT
 <Sep02-2015> <10:44:59>  >>>> ORTHON
 <Sep02-2015> <10:44:59>  >>>> GENPT
 <Sep02-2015> <10:44:59>  Acc.Num.Int.=  10.000
 <Sep02-2015> <10:44:59>  Block Length=  35
 <Sep02-2015> <10:44:59>  >>>> PTBAS
 <Sep02-2015> <10:44:59>  >>>> CYCLE
 <Sep02-2015> <10:44:59>    1
 <Sep02-2015> <10:44:59>    2  ErrMat   0.00258453  MaxEl -0.00253172
 <Sep02-2015> <10:44:59>    3  ErrMat   0.00050241  MaxEl  0.00048214
 <Sep02-2015> <10:44:59>    4  ErrMat   0.00000638  MaxEl  0.00000533
 <Sep02-2015> <10:44:59>    5  ErrMat   0.00000001  MaxEl -0.00000001
 <Sep02-2015> <10:44:59>  SCF converged
 <Sep02-2015> <10:44:59>    6  ErrMat   0.00000000  MaxEl  0.00000000
 <Sep02-2015> <10:44:59>   Solutions with partially occupied orbitals may not be
 <Sep02-2015> <10:44:59>   lowest in energy. You might consider lowering the
 <Sep02-2015> <10:44:59>   symmetry in the input and explicitly specifying integer
 <Sep02-2015> <10:44:59>   occupations. In that case always check that you obtain
 <Sep02-2015> <10:44:59>   an aufbau solution.
 <Sep02-2015> <10:44:59>  >>>> POPAN
 <Sep02-2015> <10:44:59>  >>>> DEBYE
 <Sep02-2015> <10:44:59>  NORMAL TERMINATION
 <Sep02-2015> <10:44:59>  END
 <Sep02-2015> <10:44:59>  DIRAC 2012.01  RunTime: Sep02-2015 10:44:59  Nodes: 1  Procs: 1
 <Sep02-2015> <10:45:00>  NORMAL TERMINATION
 <Sep02-2015> <10:45:00>  END
 <Sep02-2015> <10:45:00>  ADF 2012.01  RunTime: Sep02-2015 10:45:00  Nodes: 1  Procs: 1
 <Sep02-2015> <10:45:00>  Silver (TZP, 3d frozen)
 <Sep02-2015> <10:45:01>  RunType   : CREATE
 <Sep02-2015> <10:45:01>  Net Charge: 0 (Nuclei minus Electrons)
 <Sep02-2015> <10:45:01>  Symmetry  : ATOM
 <Sep02-2015> <10:45:01>  >>>> CORORT
 <Sep02-2015> <10:45:01>  >>>> FITINT
 <Sep02-2015> <10:45:01>  >>>> CLSMAT
 <Sep02-2015> <10:45:01>  >>>> ORTHON
 <Sep02-2015> <10:45:01>  >>>> GENPT
 <Sep02-2015> <10:45:01>  Acc.Num.Int.=  10.000
 <Sep02-2015> <10:45:01>  Block Length=  94
 <Sep02-2015> <10:45:01>  >>>> PTBAS
 <Sep02-2015> <10:45:01>  >>>> CYCLE
 <Sep02-2015> <10:45:01>    1
 <Sep02-2015> <10:45:01>    2  ErrMat   0.02728591  MaxEl  0.00887264
 <Sep02-2015> <10:45:01>    3  ErrMat   0.05713964  MaxEl -0.01729688
 <Sep02-2015> <10:45:01>    4  ErrMat   0.00229105  MaxEl -0.00078765
 <Sep02-2015> <10:45:01>    5  ErrMat   0.00007667  MaxEl  0.00002781
 <Sep02-2015> <10:45:01>    6  ErrMat   0.00000030  MaxEl -0.00000012
 <Sep02-2015> <10:45:01>    7  ErrMat   0.00000001  MaxEl  0.00000000
 <Sep02-2015> <10:45:01>  SCF converged
 <Sep02-2015> <10:45:01>    8  ErrMat   0.00000000  MaxEl  0.00000000
 <Sep02-2015> <10:45:01>   Solutions with partially occupied orbitals may not be
 <Sep02-2015> <10:45:01>   lowest in energy. You might consider lowering the
 <Sep02-2015> <10:45:01>   symmetry in the input and explicitly specifying integer
 <Sep02-2015> <10:45:01>   occupations. In that case always check that you obtain
 <Sep02-2015> <10:45:01>   an aufbau solution.
 <Sep02-2015> <10:45:01>  >>>> POPAN
 <Sep02-2015> <10:45:01>  >>>> DEBYE
 <Sep02-2015> <10:45:01>  NORMAL TERMINATION
 <Sep02-2015> <10:45:01>  END

 *******************************************************************************
 *                                                                             *
 *  -------------------------------------                                      *
 *   Amsterdam Density Functional  (ADF)         2012.01   January 26, 2012    *
 *  -------------------------------------                                      *
 *                                               Build 201201262206            *
 *                                                                             *
 *                                                                             *
 *                            =====================                            *
 *                            |                   |                            *
 *                            |     D I R A C     |                            *
 *                            |                   |                            *
 *                            =====================                            *
 *                                                                             *
 *                                                                             *
 *   Online information and documentation:  http://www.scm.com                 *
 *   E-mail:  support@scm.com   info@scm.com                                   *
 *                                                                             *
 *   Scientific publications using ADF results must be properly referenced     *
 *   See the User Manuals (or the web site) for recommended citations          *
 *   The terms and conditions of the End User License Agreement apply to       *
 *   the use of ADF, http://www.scm.com/Sales/LicAgreement.html                *
 *                                                                             *
 *****************************  pentium64_linux  *******************************
 
 DIRAC 2012.01  RunTime: Sep02-2015 10:45:02  Nodes: 1  Procs: 1

 Temporary files are created in /tmp/2102160.1.batch.q/kid_0.20nkg3

1
 CARBON ATOM 1s CORE RELATIVISTIC, Point Nuc, A and c from li
 N J RN H ZN XION ANUC CLIGHT
 5000    4100.00000000197.36710137  6.00000000  0.00000000   12.000000  0.1370360E+03
  PH   PHI     EPS        DEL        DELRVR
  0.30  0.30     2500.00  0.00001000  0.00001000
 IDIRC  NC1  NDEBU NPRIN  IPUN IRCOR IWCOR
   1   300     0     0     0     0     1
   XALPHA      XLATTER      RNUC
  0.70000000  0.00000000  0.00000000 Point Charge
   XN   XL   XJ      XE          XZ      XDELL
  1.0  0.0  0.5      -5.000       2.000     0.00000
  2.0  0.0  0.5      -1.000       2.000     0.00000
  2.0  1.0  0.5      -1.000       2.000     0.00000
  2.0  1.0  1.5      -1.000       0.000     0.00000
 ICORP=  0  NPCL=  0  DEMP=0.00  PEPS=0.000000
 R(1)=  0.1000000E-08 D=  0.1005080E+01 RNUC=  0.0000000E+00
 converged at cycle   26  DENSITY AVERAGING    0.3000
  MAXIMUM ERROR IN R.V(R) IS   0.55010513E-05
 Q,EY,EV,EZ,ESUM,ETOT,RHO  0.600000E+01 -0.610129E+01 -0.585189E+02 -0.876464E+02 -0.211985E+02 -0.372876E+02  0.164808E-14


 DIRAC CALCULATION
1                    CARBON ATOM 1s CORE RELATIVISTIC, Point Nuc, A and c from libtc


 EXCHANGE COEFFICIENT=  0.7000000           TAIL CORRECTION=  0.           NUCLEAR RADIUS=  0.000E+00
0                       ORBITAL    N    L    J     ELECTRONS     EIGENVALUE                DELTA OF EIGENV.

                          1S1/2  1.0  0.0  0.5     2.000       -0.9959611E+01                 0.1355092E-04
                          2S1/2  2.0  0.0  0.5     2.000       -0.4708542E+00                 0.1106918E-05
                          2P1/2  2.0  1.0  0.5     2.000       -0.1687896E+00                 0.8770186E-06
                          2P3/2  2.0  1.0  1.5     0.000       -0.1684646E+00                 0.8770830E-06


                                        NUCLEAR CHARGE=    6.000000
                            INTEGRAL OF CHARGE DENSITY=    6.000000
                           SUM OF THE ORBITAL ENERGIES=    -21.1985
                                          TOTAL ENERGY=    -37.2876
                                        KINETIC ENERGY=     37.3204
                             NUCLEAR ATTRACTION ENERGY=    -87.6464
                             ELECTRON REPULSION ENERGY=     17.6144
                                       EXCHANGE ENERGY=     -4.5760

 *******************************************************************************

                             D I R A C   E X I T
 NORMAL TERMINATION



 =================
 Timing Statistics
 =================
  
 Total Used :                     CPU=        0.18      System=        0.12     Elapsed=        0.31

 Calls  Section                     ( Mean, Percentage )
 ---------------------------------------------------------------------------------------------------
     2  ><      ................      0.00    0.00             0.00    0.00             0.00    0.01
     1  EXIT PROCEDURE .........      0.18  100.00             0.12  100.00             0.31   99.99


 Currently Open Files (EXIT00)
 ====================

 Unit    Access Format  Status   Type       Ident (file)
 -------------------------------------------------------
   3      SEQ    FORM   TRANSP  NORMAL      LOGFILE
                                          ( logfile )


 Buffered I/O statistics
 =======================
 Memory available:                    268435456
 Number of records fitting in memory:     64527
 Input : 100.0% of                            0  *4k bytes
 Output: 100.0% of                            0  *4k bytes
 Records from serial files evicted:           0
                    others evicted:           0
 Hash table lookups:          0 with          0 conflicts (100.00%)
(INPUT FILE)
Create C   file=/homes/cmaikens/adf2012.01/atomicdata/ZORA/TZP/C.1s
XC
GGA Becke Perdew
End
relativistic ZORA
Corepotentials t12.rel
End Input

 *******************************************************************************
 *                                                                             *
 *  -------------------------------------                                      *
 *   Amsterdam Density Functional  (ADF)         2012.01   January 26, 2012    *
 *  -------------------------------------                                      *
 *                                               Build 201201262307            *
 *                                                                             *
 *                                                                             *
 *                              =================                              *
 *                              |               |                              *
 *                              |     A D F     |                              *
 *                              |               |                              *
 *                              =================                              *
 *                                                                             *
 *                                                                             *
 *   Online information and documentation:  http://www.scm.com                 *
 *   E-mail:  support@scm.com   info@scm.com                                   *
 *                                                                             *
 *   Scientific publications using ADF results must be properly referenced     *
 *   See the User Manuals (or the web site) for recommended citations          *
 *   The terms and conditions of the End User License Agreement apply to       *
 *   the use of ADF, http://www.scm.com/Sales/LicAgreement.html                *
 *                                                                             *
 **********************  pentium64_linux / platform_mpi  ***********************
 
 ADF 2012.01  RunTime: Sep02-2015 10:45:02  Nodes: 1  Procs: 1

 Temporary files are created in /tmp/2102160.1.batch.q/kid_0.Vy5FqU

 Carbon (TZP, 1s frozen)



 ===========================
 A T T A C H E D   F I L E S
 ===========================
  
 CREATE - Data File:    /homes/cmaikens/adf2012.01/atomicdata/ZORA/TZP/C.1s
                        Carbon (TZP, 1s frozen)
 Core Potentials:
         file : t12.rel



 ===============================
 M O D E L   P A R A M E T E R S
 ===============================
  
 DENSITY FUNCTIONAL POTENTIAL (scf)
    LDA:                               VWN                                      
    Gradient Corrections:              Becke88 Perdew86                        == Not Default ==

 SPIN  (restricted / unrestr.)
    Molecule:                          Restricted                               

 OTHER ASPECTS
    Relativistic Corrections:          scalar (ZORA,SAPA)                       *** SPECIAL ***

    Nuclear Charge Density Model:      Point Charge Nuclei                                                                                                                                                                                     
    Core Treatment:                    Frozen Orbital(s)                        

    Electric Field:                    ---                                      

    Hyperfine or Zeeman Interaction:   ---                                      



 =====================================
 S Y M M E T R Y ,   E L E C T R O N S
 =====================================
  
 Symmetry: ATOM

 Irreducible Representations, including subspecies
 -------------------------------------------------
 S
 P:x  P:y  P:z
 D:z2  D:x2-y2  D:xy  D:xz  D:yz
 F:z3  F:z  F:xyz  F:z2x  F:z2y  F:x  F:y


 Configuration of Valence Electrons
 ==================================

          Occupation Numbers
          -------------------------------------------------
 S        2
 P        2
 D        0
 F        0
          -------------------------------------------------

 Total:   4

 Net Charge: 0 (Nuclei minus Electrons)

 Preset values for MO occupations will be applied through SCF cycle no. 1000000
 Thereafter, the program will assign electrons to MOs that are spatially
 similar to the occupied MOs in a "reference" cycle ("KeepOrbitals").
 The reference cycle is always the PREVIOUS cycle: it will evolve with
 the SCF procedure.



 ================================
 (Slater-type)  F U N C T I O N S  ***  (Basis and Fit)  ***
 ================================
  

 Atom Type    1  (C)
 ==============

 Valence Basis Sets:   8
 -----------------------
   1 S    5.400000
   2 S    1.280000
   2 S    2.100000
   2 S    4.600000
   2 P    0.820000
   2 P    1.480000
   2 P    2.940000
   3 D    2.200000

 Frozen Core Shells
 ------------------
    S:  1

 Charge Fitting Sets (for the computation of the Coulomb Potential):  20
 -----------------------------------------------------------------------
   1 S   10.800000
   2 S   11.590000
   2 S    7.590000
   2 S    4.970000
   3 S    4.790000
   3 S    3.350000
   3 S    2.340000
   3 S    1.640000
   2 P    8.340000
   2 P    5.140000
   3 P    4.670000
[...]
 <Sep02-2015> <17:38:12>   10  ErrMat   0.00025135  MaxEl -0.00007963
 <Sep02-2015> <17:38:23>   11  ErrMat   0.00010889  MaxEl  0.00003597
 <Sep02-2015> <17:38:34>   12  ErrMat   0.00008407  MaxEl  0.00002651
 <Sep02-2015> <17:38:45>   13  ErrMat   0.00006449  MaxEl  0.00002125
 <Sep02-2015> <17:38:57>   14  ErrMat   0.00005499  MaxEl  0.00001839
 <Sep02-2015> <17:39:08>   15  ErrMat   0.00002186  MaxEl  0.00000718
 <Sep02-2015> <17:39:19>   16  ErrMat   0.00002194  MaxEl  0.00000748
 <Sep02-2015> <17:39:30>   17  ErrMat   0.00001587  MaxEl  0.00000567
 <Sep02-2015> <17:39:41>   18  ErrMat   0.00001234  MaxEl -0.00000352
 <Sep02-2015> <17:39:53>   19  ErrMat   0.00001480  MaxEl -0.00000397
 <Sep02-2015> <17:40:04>   20  ErrMat   0.00000717  MaxEl -0.00000185
 <Sep02-2015> <17:40:15>   21  ErrMat   0.00002142  MaxEl  0.00000543
 <Sep02-2015> <17:40:27>   22  ErrMat   0.00003305  MaxEl  0.00000870
 <Sep02-2015> <17:40:38>   23  ErrMat   0.00000412  MaxEl -0.00000082
 <Sep02-2015> <17:40:38>  SCF converged
 <Sep02-2015> <17:40:49>   24  ErrMat   0.00000235  MaxEl -0.00000059
 <Sep02-2015> <17:40:50>  >>>> TOTEN
 <Sep02-2015> <17:41:17>  >>>> POPAN
 <Sep02-2015> <17:41:17>  >>>> DEBYE
 <Sep02-2015> <17:41:17>  >>>> AMETS
 <Sep02-2015> <17:41:18>  >>>> ENGRAD
 <Sep02-2015> <17:42:25>  current energy                               -4.83378026 Hartree
 <Sep02-2015> <17:42:25>  energy change                       0.00011469     0.00010000    F
 <Sep02-2015> <17:42:25>  constrained gradient max            0.00100521     0.00100000    F
 <Sep02-2015> <17:42:25>  constrained gradient rms            0.00028173     0.00066667    T
 <Sep02-2015> <17:42:25>  gradient max                        0.00100521
 <Sep02-2015> <17:42:25>  gradient rms                        0.00028173
 <Sep02-2015> <17:42:25>  cart. step max                      0.01956132     0.01000000    F
 <Sep02-2015> <17:42:25>  cart. step rms                      0.00736590     0.00666667    F
  Coordinates in Geometry Cycle 77
    Atom         X           Y           Z   (Angstrom)
    1.Ag       12.483686   10.210463    8.789037
    2.Ag       11.826904    9.572279   13.692418
    3.S        12.738466    7.434631   14.569885
    4.S        10.924676   11.681518   14.635794
    5.S        13.752343    8.323864    7.746657
    6.S        11.771352   12.483063    8.100990
    7.S        11.472448    9.366183   11.077979
    8.C        13.297238   13.414494    7.648766
    9.C        15.539194    8.637574    8.073774
   10.C        11.891864   13.073094   13.908831
   11.C        10.980438    7.610586   10.794128
   12.C        13.564911    7.805507   16.175078
   13.H        13.629927   13.001529    6.691042
   14.H        14.072338   13.287732    8.408306
   15.H        13.027673   14.467968    7.529504
   16.H        15.795501    9.680362    7.872584
   17.H        16.123709    7.958069    7.446761
   18.H        15.702148    8.402150    9.130314
   19.H        11.526430   13.194902   12.884592
   20.H        12.961110   12.848291   13.909993
   21.H        11.675232   13.975321   14.488427
   22.H        10.290421    7.301031   11.582291
   23.H        11.904853    7.026169   10.840785
   24.H        10.524298    7.523114    9.805579
   25.H        14.196182    8.693073   16.088111
   26.H        14.149310    6.927773   16.465263
   27.H        12.758573    7.974442   16.895527
   28.H        13.867748    7.367578   13.816603
   29.H        11.568869   11.644812   15.831755
   30.H        13.728219    8.785149    6.468836
   31.H        11.576838   13.060427    9.315609
   32.H        10.231265    9.911960   10.988739
 <Sep02-2015> <17:42:25>  >>>> CORORT
 <Sep02-2015> <17:42:25>  >>>> FITINT
 <Sep02-2015> <17:42:28>  >>>> CLSMAT
 <Sep02-2015> <17:42:28>  >>>> ORTHON
 <Sep02-2015> <17:42:28>  >>>> GENPT
 <Sep02-2015> <17:42:28>  Acc.Num.Int.=   6.000
 <Sep02-2015> <17:42:28>  Reusing previous cell geometry for gradient smoothing.
 <Sep02-2015> <17:42:30>  Block Length= 128
 <Sep02-2015> <17:42:31>  >>>> PTBAS
 <Sep02-2015> <17:42:49>  >>>> SURPTS
 <Sep02-2015> <17:42:49>  combining surface points...
 <Sep02-2015> <17:42:49>  combining surface points...
 <Sep02-2015> <17:42:49>  combining surface points...
 <Sep02-2015> <17:42:49>  >>>> CYCLE
 <Sep02-2015> <17:42:57>    1
 <Sep02-2015> <17:43:08>    2  ErrMat   0.12415677  MaxEl -0.01637329
 <Sep02-2015> <17:43:19>    3  ErrMat   0.07794362  MaxEl -0.01057776
 <Sep02-2015> <17:43:31>    4  ErrMat   0.07255773  MaxEl  0.01491715
 <Sep02-2015> <17:43:42>    5  ErrMat   0.01072001  MaxEl  0.00215644
 <Sep02-2015> <17:43:53>    6  ErrMat   0.00833187  MaxEl  0.00182897
 <Sep02-2015> <17:44:05>    7  ErrMat   0.00176769  MaxEl -0.00056610
 <Sep02-2015> <17:44:16>    8  ErrMat   0.00053804  MaxEl -0.00012896
 <Sep02-2015> <17:44:27>    9  ErrMat   0.00021847  MaxEl  0.00004642
 <Sep02-2015> <17:44:38>   10  ErrMat   0.00007442  MaxEl  0.00002270
 <Sep02-2015> <17:44:49>   11  ErrMat   0.00003510  MaxEl  0.00000973
 <Sep02-2015> <17:45:01>   12  ErrMat   0.00002132  MaxEl  0.00000399
 <Sep02-2015> <17:45:12>   13  ErrMat   0.00000362  MaxEl -0.00000062
 <Sep02-2015> <17:45:12>  SCF converged
 <Sep02-2015> <17:45:23>   14  ErrMat   0.00000158  MaxEl  0.00000026
 <Sep02-2015> <17:45:24>  >>>> TOTEN
 <Sep02-2015> <17:45:51>  >>>> POPAN
 <Sep02-2015> <17:45:51>  >>>> DEBYE
 <Sep02-2015> <17:45:51>  >>>> AMETS
 <Sep02-2015> <17:45:51>  >>>> ENGRAD
 <Sep02-2015> <17:46:58>  current energy                               -4.83372491 Hartree
 <Sep02-2015> <17:46:58>  energy change                       0.00005535     0.00010000    T
 <Sep02-2015> <17:46:58>  constrained gradient max            0.00080546     0.00100000    T
 <Sep02-2015> <17:46:58>  constrained gradient rms            0.00024306     0.00066667    T
 <Sep02-2015> <17:46:58>  gradient max                        0.00080546
 <Sep02-2015> <17:46:58>  gradient rms                        0.00024306
 <Sep02-2015> <17:46:58>  cart. step max                      0.03219787     0.01000000    F
 <Sep02-2015> <17:46:58>  cart. step rms                      0.00845164     0.00666667    F
  Coordinates in Geometry Cycle 78
    Atom         X           Y           Z   (Angstrom)
    1.Ag       12.484344   10.214007    8.790451
    2.Ag       11.827981    9.569337   13.693765
    3.S        12.737554    7.435245   14.581731
    4.S        10.925551   11.680410   14.629177
    5.S        13.749875    8.325789    7.743955
    6.S        11.771299   12.485434    8.100470
    7.S        11.471998    9.364143   11.079594
    8.C        13.294878   13.417925    7.642307
    9.C        15.538382    8.638368    8.062447
   10.C        11.895429   13.062126   13.886656
   11.C        10.982976    7.610628   10.791349
   12.C        13.556528    7.804201   16.191017
   13.H        13.623911   13.002647    6.684745
   14.H        14.071524   13.293228    8.400816
   15.H        13.024885   14.470689    7.521046
   16.H        15.794250    9.681219    7.859994
   17.H        16.119175    7.958447    7.432661
   18.H        15.707249    8.404010    9.118442
   19.H        11.527921   13.176139   12.861609
   20.H        12.963920   12.833974   13.887385
   21.H        11.685054   13.971490   14.456230
   22.H        10.295073    7.297269   11.579709
   23.H        11.908323    7.027076   10.835071
   24.H        10.525155    7.523218    9.803056
   25.H        14.192084    8.689054   16.108041
   26.H        14.135935    6.923507   16.483959
   27.H        12.748185    7.977648   16.907731
   28.H        13.869582    7.363403   13.832026
   29.H        11.564785   11.651735   15.827967
   30.H        13.717255    8.786401    6.466079
   31.H        11.581652   13.067727    9.313890
   32.H        10.230912    9.908625   10.991419
 <Sep02-2015> <17:46:58>  >>>> CORORT
 <Sep02-2015> <17:46:58>  >>>> FITINT
 <Sep02-2015> <17:47:01>  >>>> CLSMAT
 <Sep02-2015> <17:47:01>  >>>> ORTHON
 <Sep02-2015> <17:47:01>  >>>> GENPT
 <Sep02-2015> <17:47:01>  Acc.Num.Int.=   6.000
 <Sep02-2015> <17:47:02>  Reusing previous cell geometry for gradient smoothing.
 <Sep02-2015> <17:47:03>  Block Length= 128
 <Sep02-2015> <17:47:04>  >>>> PTBAS
 <Sep02-2015> <17:47:22>  >>>> SURPTS
 <Sep02-2015> <17:47:22>  combining surface points...
 <Sep02-2015> <17:47:22>  combining surface points...
 <Sep02-2015> <17:47:22>  combining surface points...
 <Sep02-2015> <17:47:22>  >>>> CYCLE
 <Sep02-2015> <17:47:30>    1
 <Sep02-2015> <17:47:41>    2  ErrMat   0.12655146  MaxEl -0.01594742
 <Sep02-2015> <17:47:52>    3  ErrMat   0.07910628  MaxEl -0.01054836
 <Sep02-2015> <17:48:04>    4  ErrMat   0.07354112  MaxEl  0.01493192
 <Sep02-2015> <17:48:15>    5  ErrMat   0.01091914  MaxEl  0.00211287
 <Sep02-2015> <17:48:26>    6  ErrMat   0.00852016  MaxEl  0.00170762
 <Sep02-2015> <17:48:37>    7  ErrMat   0.00180081  MaxEl -0.00052811
 <Sep02-2015> <17:48:48>    8  ErrMat   0.00060762  MaxEl -0.00012138
 <Sep02-2015> <17:49:00>    9  ErrMat   0.00024500  MaxEl -0.00004034
 <Sep02-2015> <17:49:11>   10  ErrMat   0.00010778  MaxEl -0.00002507
 <Sep02-2015> <17:49:22>   11  ErrMat   0.00008438  MaxEl  0.00001834
 <Sep02-2015> <17:49:33>   12  ErrMat   0.00003580  MaxEl  0.00000811
 <Sep02-2015> <17:49:44>   13  ErrMat   0.00000925  MaxEl -0.00000270
 <Sep02-2015> <17:49:55>   14  ErrMat   0.00000648  MaxEl  0.00000164
 <Sep02-2015> <17:50:06>   15  ErrMat   0.00000168  MaxEl -0.00000028
 <Sep02-2015> <17:50:06>  SCF converged
 <Sep02-2015> <17:50:17>   16  ErrMat   0.00000068  MaxEl  0.00000013
 <Sep02-2015> <17:50:19>  >>>> TOTEN
 <Sep02-2015> <17:50:45>  >>>> POPAN
 <Sep02-2015> <17:50:45>  >>>> DEBYE
 <Sep02-2015> <17:50:46>  >>>> AMETS
 <Sep02-2015> <17:50:46>  >>>> ENGRAD
 <Sep02-2015> <17:51:52>  current energy                               -4.83370719 Hartree
 <Sep02-2015> <17:51:52>  energy change                       0.00001772     0.00010000    T
 <Sep02-2015> <17:51:52>  constrained gradient max            0.00088510     0.00100000    T
 <Sep02-2015> <17:51:52>  constrained gradient rms            0.00026585     0.00066667    T
 <Sep02-2015> <17:51:52>  gradient max                        0.00088510
 <Sep02-2015> <17:51:52>  gradient rms                        0.00026585
 <Sep02-2015> <17:51:52>  cart. step max                      0.02061552     0.01000000    F
 <Sep02-2015> <17:51:52>  cart. step rms                      0.00628432     0.00666667    T
  Coordinates in Geometry Cycle 79
    Atom         X           Y           Z   (Angstrom)
    1.Ag       12.484374   10.213402    8.790639
    2.Ag       11.826805    9.568763   13.693174
    3.S        12.730541    7.433196   14.584047
    4.S        10.932511   11.684852   14.626724
    5.S        13.754649    8.326651    7.748023
    6.S        11.766490   12.482885    8.099477
    7.S        11.471539    9.361773   11.079510
    8.C        13.289149   13.419215    7.646748
    9.C        15.543176    8.652236    8.053494
   10.C        11.909455   13.062895   13.886937
   11.C        10.984639    7.607032   10.791983
   12.C        13.551871    7.804426   16.191669
   13.H        13.623328   13.004668    6.690518
   14.H        14.063434   13.297047    8.408007
   15.H        13.016492   14.471225    7.524163
   16.H        15.791172    9.695452    7.843670
   17.H        16.124669    7.972436    7.423985
   18.H        15.719814    8.424625    9.109680
   19.H        11.542529   13.180304   12.862242
   20.H        12.976809   12.829420   13.887165
   21.H        11.703177   13.972091   14.458607
   22.H        10.296717    7.293301   11.580306
   23.H        11.910687    7.024760   10.836148
   24.H        10.527206    7.519288    9.803678
   25.H        14.188919    8.687928   16.105912
   26.H        14.129955    6.923602   16.486354
   27.H        12.744204    7.981045   16.908601
   28.H        13.861509    7.356699   13.833527
   29.H        11.572570   11.653591   15.824941
   30.H        13.711812    8.779985    6.467862
   31.H        11.570634   13.063374    9.312625
   32.H        10.229864    9.905000   10.991202
 <Sep02-2015> <17:51:52>  >>>> CORORT
 <Sep02-2015> <17:51:52>  >>>> FITINT
 <Sep02-2015> <17:51:55>  >>>> CLSMAT
 <Sep02-2015> <17:51:56>  >>>> ORTHON
 <Sep02-2015> <17:51:56>  >>>> GENPT
 <Sep02-2015> <17:51:56>  Acc.Num.Int.=   6.000
 <Sep02-2015> <17:51:56>  Reusing previous cell geometry for gradient smoothing.
 <Sep02-2015> <17:51:57>  Block Length= 128
 <Sep02-2015> <17:51:58>  >>>> PTBAS
 <Sep02-2015> <17:52:16>  >>>> SURPTS
 <Sep02-2015> <17:52:16>  combining surface points...
 <Sep02-2015> <17:52:16>  combining surface points...
 <Sep02-2015> <17:52:16>  combining surface points...
 <Sep02-2015> <17:52:16>  >>>> CYCLE
 <Sep02-2015> <17:52:24>    1
 <Sep02-2015> <17:52:35>    2  ErrMat   0.12420455  MaxEl -0.01623484
 <Sep02-2015> <17:52:46>    3  ErrMat   0.07802044  MaxEl -0.01041147
 <Sep02-2015> <17:52:58>    4  ErrMat   0.07255143  MaxEl  0.01474779
 <Sep02-2015> <17:53:09>    5  ErrMat   0.01075393  MaxEl  0.00213130
 <Sep02-2015> <17:53:20>    6  ErrMat   0.00834905  MaxEl  0.00181086
 <Sep02-2015> <17:53:31>    7  ErrMat   0.00176814  MaxEl -0.00056421
 <Sep02-2015> <17:53:42>    8  ErrMat   0.00055324  MaxEl -0.00012204
 <Sep02-2015> <17:53:53>    9  ErrMat   0.00022911  MaxEl -0.00004117
 <Sep02-2015> <17:54:05>   10  ErrMat   0.00007696  MaxEl -0.00001678
 <Sep02-2015> <17:54:16>   11  ErrMat   0.00004212  MaxEl -0.00000799
 <Sep02-2015> <17:54:27>   12  ErrMat   0.00003608  MaxEl -0.00000599
 <Sep02-2015> <17:54:38>   13  ErrMat   0.00001352  MaxEl  0.00000346
 <Sep02-2015> <17:54:49>   14  ErrMat   0.00001079  MaxEl  0.00000295
 <Sep02-2015> <17:55:00>   15  ErrMat   0.00000655  MaxEl  0.00000117
 <Sep02-2015> <17:55:11>   16  ErrMat   0.00000156  MaxEl -0.00000041
 <Sep02-2015> <17:55:11>  SCF converged
 <Sep02-2015> <17:55:22>   17  ErrMat   0.00000056  MaxEl -0.00000014
 <Sep02-2015> <17:55:23>  >>>> TOTEN
 <Sep02-2015> <17:55:50>  >>>> POPAN
 <Sep02-2015> <17:55:50>  >>>> DEBYE
 <Sep02-2015> <17:55:50>  >>>> AMETS
 <Sep02-2015> <17:55:50>  >>>> ENGRAD
 <Sep02-2015> <17:56:57>  current energy                               -4.83366319 Hartree
 <Sep02-2015> <17:56:57>  energy change                       0.00004399     0.00010000    T
 <Sep02-2015> <17:56:57>  constrained gradient max            0.00043240     0.00100000    T
 <Sep02-2015> <17:56:57>  constrained gradient rms            0.00014687     0.00066667    T
 <Sep02-2015> <17:56:57>  gradient max                        0.00043240
 <Sep02-2015> <17:56:57>  gradient rms                        0.00014687
 <Sep02-2015> <17:56:57>  cart. step max                      0.00567417     0.01000000    T
 <Sep02-2015> <17:56:57>  cart. step rms                      0.00241853     0.00666667    T
 <Sep02-2015> <17:56:57>  GEOMETRY CONVERGED
 <Sep02-2015> <17:56:57>  Calculating Energy Terms for Final Geometry
  Coordinates in Geometry Cycle 79
    Atom         X           Y           Z   (Angstrom)
    1.Ag       12.484374   10.213402    8.790639
    2.Ag       11.826805    9.568763   13.693174
    3.S        12.730541    7.433196   14.584047
    4.S        10.932511   11.684852   14.626724
    5.S        13.754649    8.326651    7.748023
    6.S        11.766490   12.482885    8.099477
    7.S        11.471539    9.361773   11.079510
    8.C        13.289149   13.419215    7.646748
    9.C        15.543176    8.652236    8.053494
   10.C        11.909455   13.062895   13.886937
   11.C        10.984639    7.607032   10.791983
   12.C        13.551871    7.804426   16.191669
   13.H        13.623328   13.004668    6.690518
   14.H        14.063434   13.297047    8.408007
   15.H        13.016492   14.471225    7.524163
   16.H        15.791172    9.695452    7.843670
   17.H        16.124669    7.972436    7.423985
   18.H        15.719814    8.424625    9.109680
   19.H        11.542529   13.180304   12.862242
   20.H        12.976809   12.829420   13.887165
   21.H        11.703177   13.972091   14.458607
   22.H       -10.296717    7.293301   11.580306
   23.H        11.910687    7.024760   10.836148
   24.H        10.527206    7.519288    9.803678
   25.H        14.188919    8.687928   16.105912
   26.H        14.129955    6.923602   16.486354
   27.H        12.744204    7.981045   16.908601
   28.H        13.861509    7.356699   13.833527
   29.H        11.572570   11.653591   15.824941
   30.H        13.711812    8.779985    6.467862
   31.H        11.570634   13.063374    9.312625
   32.H        10.229864    9.905000   10.991202
 <Sep02-2015> <17:56:57>  >>>> CORORT
 <Sep02-2015> <17:56:57>  >>>> FITINT
 <Sep02-2015> <17:57:00>  >>>> CLSMAT
 <Sep02-2015> <17:57:00>  >>>> ORTHON
 <Sep02-2015> <17:57:01>  >>>> GENPT
 <Sep02-2015> <17:57:01>  Acc.Num.Int.=   6.000
 <Sep02-2015> <17:57:01>  Reusing previous cell geometry for gradient smoothing.
 <Sep02-2015> <17:57:02>  Block Length= 128
 <Sep02-2015> <17:57:03>  >>>> PTBAS
 <Sep02-2015> <17:57:21>  >>>> SURPTS
 <Sep02-2015> <17:57:21>  combining surface points...
 <Sep02-2015> <17:57:21>  combining surface points...
 <Sep02-2015> <17:57:21>  combining surface points...
 <Sep02-2015> <17:57:21>  >>>> CYCLE
 <Sep02-2015> <17:57:29>    1
 <Sep02-2015> <17:57:41>    2  ErrMat   0.12484053  MaxEl -0.01614634
 <Sep02-2015> <17:57:52>    3  ErrMat   0.07825542  MaxEl -0.01048959
 <Sep02-2015> <17:58:03>    4  ErrMat   0.07250934  MaxEl  0.01464127
 <Sep02-2015> <17:58:15>    5  ErrMat   0.01097340  MaxEl  0.00214623
 <Sep02-2015> <17:58:26>    6  ErrMat   0.00898882  MaxEl  0.00175808
 <Sep02-2015> <17:58:37>    7  ErrMat   0.00215663  MaxEl  0.00082343
 <Sep02-2015> <17:58:49>    8  ErrMat   0.00094221  MaxEl  0.00042666
 <Sep02-2015> <17:59:00>    9  ErrMat   0.00061010  MaxEl  0.00029797
 <Sep02-2015> <17:59:12>   10  ErrMat   0.00072639  MaxEl -0.00033846
 <Sep02-2015> <17:59:23>   11  ErrMat   0.00029329  MaxEl  0.00016290
 <Sep02-2015> <17:59:34>   12  ErrMat   0.00019683  MaxEl  0.00011053
 <Sep02-2015> <17:59:46>   13  ErrMat   0.00015277  MaxEl  0.00008546
 <Sep02-2015> <17:59:57>   14  ErrMat   0.00012321  MaxEl  0.00006784
 <Sep02-2015> <18:00:08>   15  ErrMat   0.00010801  MaxEl  0.00005914
 <Sep02-2015> <18:00:20>   16  ErrMat   0.00005389  MaxEl  0.00002348
 <Sep02-2015> <18:00:31>   17  ErrMat   0.00004829  MaxEl  0.00002203
 <Sep02-2015> <18:00:42>   18  ErrMat   0.00002326  MaxEl -0.00000575
 <Sep02-2015> <18:00:54>   19  ErrMat   0.00000983  MaxEl  0.00000175
 <Sep02-2015> <18:01:05>   20  ErrMat   0.00000595  MaxEl  0.00000130
 <Sep02-2015> <18:01:17>   21  ErrMat   0.00000445  MaxEl  0.00000107
 <Sep02-2015> <18:01:28>   22  ErrMat   0.00000360  MaxEl  0.00000088
 <Sep02-2015> <18:01:39>   23  ErrMat   0.00000267  MaxEl  0.00000068
 <Sep02-2015> <18:01:51>   24  ErrMat   0.00000219  MaxEl  0.00000055
 <Sep02-2015> <18:02:03>   25  ErrMat   0.00000137  MaxEl  0.00000034
 <Sep02-2015> <18:02:15>   26  ErrMat   0.00000025  MaxEl -0.00000007
 <Sep02-2015> <18:02:26>   27  ErrMat   0.00000017  MaxEl -0.00000006
 <Sep02-2015> <18:02:37>   28  ErrMat   0.00000012  MaxEl -0.00000004
 <Sep02-2015> <18:02:49>   29  ErrMat   0.00000010  MaxEl -0.00000003
 <Sep02-2015> <18:03:00>   30  ErrMat   0.00000008  MaxEl -0.00000002
 <Sep02-2015> <18:03:11>   31  ErrMat   0.00000006  MaxEl -0.00000002
 <Sep02-2015> <18:03:23>   32  ErrMat   0.00000002  MaxEl  0.00000000
 <Sep02-2015> <18:03:23>  SCF converged
 <Sep02-2015> <18:03:34>   33  ErrMat   0.00000000  MaxEl  0.00000000
 <Sep02-2015> <18:03:42>  >>>> TOTEN
 <Sep02-2015> <18:04:21>  >>>> POPAN
 <Sep02-2015> <18:04:21>  >>>> DEBYE
 <Sep02-2015> <18:04:21>  >>>> AMETS
 <Sep02-2015> <18:04:21>  >>>> POPUL
 <Sep02-2015> <18:04:21>   Bond Energy          -4.83366328 a.u.
 <Sep02-2015> <18:04:21>   Bond Energy        -131.53067019 eV
 <Sep02-2015> <18:04:21>   Bond Energy       -3033.17       kcal/mol
 <Sep02-2015> <18:04:21>  NORMAL TERMINATION
 <Sep02-2015> <18:04:21>  END
