
 *******************************************************************************
 *                                                                             *
 *  -------------------------------------                                      *
 *   Amsterdam Density Functional  (ADF)         2012.01   January 26, 2012    *
 *  -------------------------------------                                      *
 *                                               Build 201201262206            *
 *                                                                             *
 *                                                                             *
 *                            =====================                            *
 *                            |                   |                            *
 *                            |     D I R A C     |                            *
 *                            |                   |                            *
 *                            =====================                            *
 *                                                                             *
 *                                                                             *
 *   Online information and documentation:  http://www.scm.com                 *
 *   E-mail:  support@scm.com   info@scm.com                                   *
 *                                                                             *
 *   Scientific publications using ADF results must be properly referenced     *
 *   See the User Manuals (or the web site) for recommended citations          *
 *   The terms and conditions of the End User License Agreement apply to       *
 *   the use of ADF, http://www.scm.com/Sales/LicAgreement.html                *
 *                                                                             *
 *****************************  pentium64_linux  *******************************
 
 DIRAC 2012.01  RunTime: Sep03-2015 07:38:27  Nodes: 1  Procs: 1

 Temporary files are created in /tmp/2102639.1.batch.q/kid_0.fVFSOV

1
 HYDROGEN ATOM RELATIVISTIC, Point Nuc, A and c from libtc   
 N J RN H ZN XION ANUC CLIGHT
 5000    1100.00000000197.36710137  1.00000000  0.00000000    1.007825  0.1370360E+03
  PH   PHI     EPS        DEL        DELRVR
  0.30  0.30     2500.00  0.00001000  0.00001000
 IDIRC  NC1  NDEBU NPRIN  IPUN IRCOR IWCOR
   1   300     0     0     0     0     0
   XALPHA      XLATTER      RNUC
  0.70000000  0.00000000  0.00000000 Point Charge
   XN   XL   XJ      XE          XZ      XDELL
  1.0  0.0  0.5      -1.000       1.000     0.00000
 ICORP=  0  NPCL=  0  DEMP=0.00  PEPS=0.000000
 R(1)=  0.1000000E-08 D=  0.1005080E+01 RNUC=  0.0000000E+00
 converged at cycle   32  DENSITY AVERAGING    0.2400
  MAXIMUM ERROR IN R.V(R) IS   0.79874357E-05
 Q,EY,EV,EZ,ESUM,ETOT,RHO  0.100000E+01 -0.266614E+00 -0.619969E+00 -0.910779E+00 -0.203940E+00 -0.415998E+00  0.337036E-17


 DIRAC CALCULATION
1                    HYDROGEN ATOM RELATIVISTIC, Point Nuc, A and c from libtc


 EXCHANGE COEFFICIENT=  0.7000000           TAIL CORRECTION=  0.           NUCLEAR RADIUS=  0.000E+00
0                       ORBITAL    N    L    J     ELECTRONS     EIGENVALUE                DELTA OF EIGENV.

                          1S1/2  1.0  0.0  0.5     1.000       -0.2039397E+00                 0.2720093E-06


                                        NUCLEAR CHARGE=    1.000000
                            INTEGRAL OF CHARGE DENSITY=    1.000000
                           SUM OF THE ORBITAL ENERGIES=     -0.2039
                                          TOTAL ENERGY=     -0.4160
                                        KINETIC ENERGY=      0.4160
                             NUCLEAR ATTRACTION ENERGY=     -0.9108
                             ELECTRON REPULSION ENERGY=      0.2787
                                       EXCHANGE ENERGY=     -0.2000

 *******************************************************************************

                             D I R A C   E X I T
 NORMAL TERMINATION



 =================
 Timing Statistics
 =================
  
 Total Used :                     CPU=        0.12      System=        8.44     Elapsed=       11.91

 Calls  Section                     ( Mean, Percentage )
 ---------------------------------------------------------------------------------------------------
     2  ><      ................      0.00    0.00             0.00    0.00             0.00    0.00
     1  EXIT PROCEDURE .........      0.12  100.00             8.44  100.00            11.91  100.00


 Currently Open Files (EXIT00)
 ====================

 Unit    Access Format  Status   Type       Ident (file)
 -------------------------------------------------------
   3      SEQ    FORM   TRANSP  NORMAL      LOGFILE
                                          ( logfile )


 Buffered I/O statistics
 =======================
 Memory available:                    268435456
 Number of records fitting in memory:     64527
 Input : 100.0% of                            0  *4k bytes
 Output: 100.0% of                            0  *4k bytes
 Records from serial files evicted:           0
                    others evicted:           0
 Hash table lookups:          0 with          0 conflicts (100.00%)
(INPUT FILE)
Create H   file=/homes/cmaikens/adf2012.01/atomicdata/ZORA/TZP/H
XC
GGA Becke Perdew
End
relativistic ZORA
Corepotentials t12.rel
End Input

 *******************************************************************************
 *                                                                             *
 *  -------------------------------------                                      *
 *   Amsterdam Density Functional  (ADF)         2012.01   January 26, 2012    *
 *  -------------------------------------                                      *
 *                                               Build 201201262307            *
 *                                                                             *
 *                                                                             *
 *                              =================                              *
 *                              |               |                              *
 *                              |     A D F     |                              *
 *                              |               |                              *
 *                              =================                              *
 *                                                                             *
 *                                                                             *
 *   Online information and documentation:  http://www.scm.com                 *
 *   E-mail:  support@scm.com   info@scm.com                                   *
 *                                                                             *
 *   Scientific publications using ADF results must be properly referenced     *
 *   See the User Manuals (or the web site) for recommended citations          *
 *   The terms and conditions of the End User License Agreement apply to       *
 *   the use of ADF, http://www.scm.com/Sales/LicAgreement.html                *
 *                                                                             *
 **********************  pentium64_linux / platform_mpi  ***********************
 
 ADF 2012.01  RunTime: Sep03-2015 07:38:39  Nodes: 1  Procs: 1

 Temporary files are created in /tmp/2102639.1.batch.q/kid_0.kJbLjy

 Hydrogen (TZP)



 ===========================
 A T T A C H E D   F I L E S
 ===========================
  
 CREATE - Data File:    /homes/cmaikens/adf2012.01/atomicdata/ZORA/TZP/H
                        Hydrogen (TZP)
 Core Potentials:
         file : t12.rel



 ===============================
 M O D E L   P A R A M E T E R S
 ===============================
  
 DENSITY FUNCTIONAL POTENTIAL (scf)
    LDA:                               VWN                                      
    Gradient Corrections:              Becke88 Perdew86                        == Not Default ==

 SPIN  (restricted / unrestr.)
    Molecule:                          Restricted                               

 OTHER ASPECTS
    Relativistic Corrections:          scalar (ZORA,SAPA)                       *** SPECIAL ***

    Nuclear Charge Density Model:      Point Charge Nuclei                                                                                                                                                                                     
    Core Treatment:                    Frozen Orbital(s)                        

    Electric Field:                    ---                                      

    Hyperfine or Zeeman Interaction:   ---                                      



 =====================================
 S Y M M E T R Y ,   E L E C T R O N S
 =====================================
  
 Symmetry: ATOM

 Irreducible Representations, including subspecies
 -------------------------------------------------
 S
 P:x  P:y  P:z
 D:z2  D:x2-y2  D:xy  D:xz  D:yz
 F:z3  F:z  F:xyz  F:z2x  F:z2y  F:x  F:y


 Configuration of Valence Electrons
 ==================================

          Occupation Numbers
          -------------------------------------------------
 S        1
 P        0
 D        0
 F        0
          -------------------------------------------------

 Total:   1

 Net Charge: 0 (Nuclei minus Electrons)

 Preset values for MO occupations will be applied through SCF cycle no. 1000000
 Thereafter, the program will assign electrons to MOs that are spatially
 similar to the occupied MOs in a "reference" cycle ("KeepOrbitals").
 The reference cycle is always the PREVIOUS cycle: it will evolve with
 the SCF procedure.



 ================================
 (Slater-type)  F U N C T I O N S  ***  (Basis and Fit)  ***
 ================================
  

 Atom Type    1  (H)
 ==============

 Valence Basis Sets:   4
 -----------------------
   1 S    0.690000
   1 S    0.920000
   1 S    1.580000
   2 P    1.250000

 Charge Fitting Sets (for the computation of the Coulomb Potential):  11
 -----------------------------------------------------------------------
   1 S    3.160000
   1 S    2.090000
   1 S    1.380000
   2 S    1.500000
   2 P    4.000000
   2 P    2.650000
   2 P    1.750000
   3 D    4.000000
   3 D    2.500000
   4 F    3.000000
   5 G    4.000000


 BAS: List of all Elementary Cartesian Basis Functions
 =====================================================

 The numbering in the list below (to the right of the function characteristics) is referred
 to in print-outs of MO eigenvectors and Mulliken populations in the BAS representation
 (as contrasted to the SFO representation).

 Notes:
 1. The functions are characterized by a polynomial prefactor (powers of x,y,z and r) and
    an exponential decay factor alpha.
 2. Since the basis sets are specific for an atom TYPE, the individual functions occur on
    all atoms of that type.
 3. The word 'Core' in the left margin signals that it is a Core Function (CF) : not a
    degree of freedom in the valence set, but only used to ensure orthogonalization of
    the other valence basis functions on the frozen Core Orbitals.


 (power of) X  Y  Z  R     Alpha  on Atom
            ==========     =====     ==========

 H                                    1
                                  ---------------------------------------------------------------------------
            0  0  0  0     0.690      1
            0  0  0  0     0.920      2
            0  0  0  0     1.580      3
            1  0  0  0     1.250      4
            0  1  0  0     1.250      5
            0  0  1  0     1.250      6

 Total number of charge fitting functions (nprimf)        50
 Total number of Cartesian basis functions (naos)          6
 Total number of Cartesian core functions  (ncos)          0



 BAS: List of all Elementary Cartesian Basis Functions
 =====================================================

 The numbering in the list below (to the right of the function characteristics) is referred
 to in print-outs of MO eigenvectors and Mulliken populations in the BAS representation
 (as contrasted to the SFO representation).

 Notes:
 1. The functions are characterized by a polynomial prefactor (powers of x,y,z and r) and
    an exponential decay factor alpha.
 2. Since the basis sets are specific for an atom TYPE, the individual functions occur on
    all atoms of that type.
 3. The word 'Core' in the left margin signals that it is a Core Function (CF) : not a
    degree of freedom in the valence set, but only used to ensure orthogonalization of
    the other valence basis functions on the frozen Core Orbitals.


 (power of) X  Y  Z  R     Alpha  on Atom
            ==========     =====     ==========

 H                                    1
                                  ---------------------------------------------------------------------------
            0  0  0  0     0.690      1
            0  0  0  0     0.920      2
            0  0  0  0     1.580      3
            1  0  0  0     1.250      4
            0  1  0  0     1.250      5
            0  0  1  0     1.250      6
1
 ***************************************************************************************************



                                              ***********************
                                              *  T E C H N I C A L  *
                                              ***********************
  



 =============================================================
 P A R A L L E L I Z A T I O N  and  V E C T O R I Z A T I O N
 =============================================================
  
 Nr of parallel processes:                                1
 Maximum vector length in NumInt loops:                 128



 ===============
 I O  vs.  C P U  ***  (store numerical data on disk or recalculate)  ***
 ===============
  
 Basis functions:   recalculate when needed
 Fit functions:     recalculate when needed

 IO buffersize (Mb):                                    256.000000



 =====================
 S C F   U P D A T E S
 =====================
  
 Max. nr. of cycles:                               100
 Convergence criterion:                              0.0000000100
   secondary criterion:                              0.0000000100

 Mix parameter (when DIIS does not apply):           0.2000000000
 Special mix parameter for the first cycle:          1.0000000000


 DIIS (Direct Inversion in Iteration Space)
    Replace damping when SCF Error is below:         0.5000000000
    Apply anyway after SCF cycle:
                                                     5
    (Max.) nr. of expansion vectors:                10

    Upperbound on expansion coefficients:            5.0000000000
    (when exceeded, IterationSpace is re-built)
    2nd Upperbound on coefficients:                 25.0000000000
    (when exceeded, simple damping will be used)
 Automatic ElectronSmearing (in case of problematic SCF convergence) disabled



 =================
 P R E C I S I O N  ***  (General: NumInt, NeglectFunctionTails, ...)  ***
 =================
  

 NumInt:           Target precision:                10.0000000000
 -------           Initial precision:               10.0000000000
                   Min. precision (optimization):   10.0000000000

 Neglect Functions:          Basis functions:        0.1000000000E-11
 ------------------          Fit functions:          0.1000000000E-11



 ===========================
 L I N E A R   S C A L I N G
 ===========================
  

 Cut-off radii density fit:                        0.1000000000E-13
 Overlap cut-off criterion AO matrix elements:     0.1000000000E-11
 Cut-offs for Coulomb potential and fitted density:0.1000000000E-13
 Cut-off criterion for Coulomb multipole terms:    0.1000000000E-13
 Progressive Convergence parameter:                 0.000000000    
1
 ***************************************************************************************************



                                            ***************************
                                            *  C O M P U T A T I O N  *
                                            ***************************
  

 Number of elements of the density matrix on this node (used, total):        21        21



 ====================================================
 Numerical Integration : Voronoi Polyhedra (Te Velde)  ***  (parameters, tests)  ***
 ====================================================
  
 General Accuracy Parameter :                         10.00

 Symmetry used in the points section:  ATOM  


 Summary of the Symmetry Unique Points:
 --------------------------------------
    Nr. of used Symmetry Operators                     1

    Points in the Atomic Spheres                      35
    Points in the Atomic Polyhedra                     0
    Points in the Outer Region                         0
    ----------------------------------------------------
    Total                                             35

    Sum of Weights                                 33854.777883

 Total nr. of points:         35
 Nr. of blocks:                1
 Block length:                35
 Nr. of dummy points:          0


 Test of Precision of the Numerical Integration Grid
 ===================================================

 Integral of the Total Core Density:                   0.00000000000000



 =====
 S C F
 =====
  

 CYCLE    1
 orbitals (Q,E):
 ---------------
 S :1...3            ( 1.00    -0.2497)  ( 0.00     0.0898)  ( 0.00     1.5086)
 P :1...1            ( 0.00     0.3944)

 CYCLE    2
 d-Pmat  mean:  0.67E-02
 imax=      2: -0.32E-01
 orbitals (Q,E):
 ---------------
 S :1...2            ( 1.00    -0.2425)  ( 0.00     0.0938)
 P :1...1            ( 0.00     0.4004)

 CYCLE    3
 d-Pmat  mean:  0.92E-03
 imax=      2:  0.43E-02
 orbitals (Q,E):
 ---------------
 S :1...2            ( 1.00    -0.2436)  ( 0.00     0.0931)
 P :1...1            ( 0.00     0.3994)

 CYCLE    4
 d-Pmat  mean:  0.23E-05
 imax=      2:  0.70E-05
 orbitals (Q,E):
 ---------------
 S :1...2            ( 1.00    -0.2436)  ( 0.00     0.0931)
 P :1...1            ( 0.00     0.3994)

 CYCLE    5
 d-Pmat  mean:  0.33E-07
 imax=      2:  0.16E-06
 orbitals (Q,E):
 ---------------
 S :1...2            ( 1.00    -0.2436)  ( 0.00     0.0931)
 P :1...1            ( 0.00     0.3994)

 SCF CONVERGED

 CYCLE    6
1
 ***************************************************************************************************



                                                *******************
                                                *  R E S U L T S  *
                                                *******************
  
 *** Setting up for NEW gradients in focky
 *** Using FIT density in focky
 XCFun disabled
 XCFun disabled
 XCFun disabled

 Scaled ZORA Orbital Energies, per Irrep and Spin:
 =================================================
                        Occup              E (au)              E (eV)       Diff (eV) with prev. cycle
                        -----      --------------------        ------       --------------------------
 S
               1        1.000     -0.24363084608098E+00        -6.630               7.44E-12
               2        0.000      0.93092450943701E-01         2.533
               3        0.000      0.15150131697268E+01        41.226
 P
               1        0.000      0.39943374979256E+00        10.869


 Partially Occupied:
               1 S                -0.24363084608098E+00
  
 LUMO :        2 S                 0.93092450943701E-01
  


 Orbital Energies, all Irreps
 ========================================

 Irrep        no.  (spin)   Occup              E (au)                E (eV)
 ---------------------------------------------------------------------------
 S             1             1.00       -0.24363084608098E+00        -6.6295
 S             2             0.00        0.93092450943701E-01         2.5332
 P             1             0.00        0.39943374979256E+00        10.8691
 S             3             0.00        0.15150131697268E+01        41.2256


 Scaled ZORA Orbital Energies of the Core Orbitals:
 ==================================================

 (Note that the atoms are grouped by atomtype, see the labels, and may hence NOT be in input order)

 AtomType  Orbital  Atom                   E (au)                        E (eV)
 --------  -------  ----           --------------------        ----------------



 =======================================
 M U L L I K E N   P O P U L A T I O N S
 =======================================
  
 The survey below gives for each atom:
 a) the total charge (Z minus electrons)
 b) the net spin polarization (nr of electrons spin-A minus spin-B)
 c) for each spin the atomic electron valence density (integrated) per L-value.

 Atom              Charge    Spin density          S         P         D         F
 ----              ------    ------------       ------    ------    ------    ------
 1 H               0.0000                       1.0000    0.0000    0.0000    0.0000

 Populations of individual BAS functions
 ----------------------------------------
 1 H            0.1849  0.7118  0.1033  0.0000  0.0000  0.0000

 Gross Charges per Atom (Z minus electrons)
 ==========================================
             0.0000
 Net Total:  0.00000000


 Atom-Atom Population Matrix (off-diagonal elements not doubled)
 ===============================================================

     1 :     1.0000



 =============
 Dipole Moment  ***  (Debye)  ***
 =============
  
 Vector   :         0.00000000      0.00000000      0.00000000
 Magnitude:         0.00000000

 This molecular dipole moment is calculated with analytic integration



 =========================================
 Quadrupole Moment (Buckingham convention)  ***  (a.u.)  ***
 =========================================
  
      quad-xx        quad-xy        quad-xz        quad-yy        quad-yz        quad-zz
      0.00000000     0.00000000     0.00000000     0.00000000     0.00000000     0.00000000

 This molecular quadrupole moment is calculated with analytic integration



 ===============================================================================
 Electrostatic potential at the Nuclei due to valence electrons and other nuclei
 ===============================================================================
  
         Atom                  Potential
         ----                  ---------
     1)   H                   0.94545402
 
 
 ========================
 No memory problems found
 ========================
 
 Maximum number of active allocate calls:         308
 
 *******************************************************************************

                             A D F   E X I T
 NORMAL TERMINATION



 =================
 Timing Statistics
 =================
  
 Total Used :                     CPU=        0.16      System=        4.29     Elapsed=        4.90

 Calls  Section                     ( Mean, Percentage )
 ---------------------------------------------------------------------------------------------------
     3  ><      ................      0.00    6.25             0.00    0.00             0.03    1.85
     1  INIT    ................      0.00    0.00             0.05    1.17             0.17    3.46
     1  GEOMET  ................      0.00    0.00             4.21   98.14             4.34   88.57
     1  INPUTA  ................      0.00    0.00             0.01    0.23             0.01    0.25
     1  MAINSY  ................      0.01    6.25             0.00    0.00             0.03    0.64
     1  SYMFIT  ................      0.00    0.00             0.00    0.00             0.00    0.04
     1  CORORT  ................      0.00    0.00             0.00    0.00             0.00    0.01
     1  SYMORB  ................      0.00    0.00             0.00    0.00             0.00    0.01
     1  FITINT  ................      0.01    6.25             0.00    0.00             0.00    0.08
     1  CLSMAT  ................      0.00    0.00             0.00    0.00             0.00    0.01
     1  ORTHON  ................      0.00    0.00             0.00    0.00             0.00    0.02
     1  ETALOW  ................      0.00    0.00             0.00    0.00             0.00    0.01
     1  GENPT   ................      0.00    0.00             0.00    0.00             0.01    0.12
     1  PTBAS   ................      0.01    6.25             0.00    0.00             0.01    0.13
     6  FOCKY   ................      0.01   56.25             0.00    0.23             0.03    3.85
     6  FOCKTR  ................      0.00    0.00             0.00    0.00             0.00    0.04
     6  FOCKNM  ................      0.00    0.00             0.00    0.00             0.00    0.00
     6  SDIIS   ................      0.00    0.00             0.00    0.23             0.00    0.06
     6  EMERGE  ................      0.00    0.00             0.00    0.00             0.00    0.23
     1  COREPS  ................      0.00    0.00             0.00    0.00             0.00    0.07
     1  POPAN   ................      0.00    0.00             0.00    0.00             0.00    0.04
     1  DEBYE   ................      0.01    6.25             0.00    0.00             0.00    0.01
     1  QMPOT   ................      0.00    0.00             0.00    0.00             0.00    0.05
     1  EXIT PROCEDURE .........      0.02   12.50             0.00    0.00             0.02    0.45


 Currently Open Files (EXIT00)
 ====================

 Unit    Access Format  Status   Type       Ident (file)
 -------------------------------------------------------
   3      SEQ    FORM   TRANSP  NORMAL      LOGFILE
                                          ( logfile )


 Buffered I/O statistics
 =======================
 Memory available:                    268435456
 Number of records fitting in memory:     64527
 Input :   2.1% of                         2027  *4k bytes
 Output:  12.8% of                         1349  *4k bytes
 Records from serial files evicted:           0
                    others evicted:           0
 Hash table lookups:       9130 with          0 conflicts (  0.00%)

 ***************************************************************************************************
 (LOGFILE)
 <Sep03-2015> <07:38:27>  DIRAC 2012.01  RunTime: Sep03-2015 07:38:27  Nodes: 1  Procs: 1
 <Sep03-2015> <07:38:27>  NORMAL TERMINATION
 <Sep03-2015> <07:38:38>  END
 <Sep03-2015> <07:38:39>  ADF 2012.01  RunTime: Sep03-2015 07:38:39  Nodes: 1  Procs: 1
 <Sep03-2015> <07:38:39>  Hydrogen (TZP)
 <Sep03-2015> <07:38:44>  RunType   : CREATE
 <Sep03-2015> <07:38:44>  Net Charge: 0 (Nuclei minus Electrons)
 <Sep03-2015> <07:38:44>  Symmetry  : ATOM
 <Sep03-2015> <07:38:44>  >>>> CORORT
 <Sep03-2015> <07:38:44>  >>>> FITINT
 <Sep03-2015> <07:38:44>  >>>> CLSMAT
 <Sep03-2015> <07:38:44>  >>>> ORTHON
 <Sep03-2015> <07:38:44>  >>>> GENPT
 <Sep03-2015> <07:38:44>  Acc.Num.Int.=  10.000
 <Sep03-2015> <07:38:44>  Block Length=  35
 <Sep03-2015> <07:38:44>  >>>> PTBAS
 <Sep03-2015> <07:38:44>  >>>> CYCLE
 <Sep03-2015> <07:38:44>    1
 <Sep03-2015> <07:38:44>    2  ErrMat   0.00258453  MaxEl -0.00253172
 <Sep03-2015> <07:38:44>    3  ErrMat   0.00050241  MaxEl  0.00048214
 <Sep03-2015> <07:38:44>    4  ErrMat   0.00000638  MaxEl  0.00000533
 <Sep03-2015> <07:38:44>    5  ErrMat   0.00000001  MaxEl -0.00000001
 <Sep03-2015> <07:38:44>  SCF converged
 <Sep03-2015> <07:38:44>    6  ErrMat   0.00000000  MaxEl  0.00000000
 <Sep03-2015> <07:38:44>   Solutions with partially occupied orbitals may not be
 <Sep03-2015> <07:38:44>   lowest in energy. You might consider lowering the
 <Sep03-2015> <07:38:44>   symmetry in the input and explicitly specifying integer
 <Sep03-2015> <07:38:44>   occupations. In that case always check that you obtain
 <Sep03-2015> <07:38:44>   an aufbau solution.
 <Sep03-2015> <07:38:44>  >>>> POPAN
 <Sep03-2015> <07:38:44>  >>>> DEBYE
 <Sep03-2015> <07:38:44>  NORMAL TERMINATION
 <Sep03-2015> <07:38:44>  END

 *******************************************************************************
 *                                                                             *
 *  -------------------------------------                                      *
 *   Amsterdam Density Functional  (ADF)         2012.01   January 26, 2012    *
 *  -------------------------------------                                      *
 *                                               Build 201201262206            *
 *                                                                             *
 *                                                                             *
 *                            =====================                            *
 *                            |                   |                            *
 *                            |     D I R A C     |                            *
 *                            |                   |                            *
 *                            =====================                            *
 *                                                                             *
 *                                                                             *
 *   Online information and documentation:  http://www.scm.com                 *
 *   E-mail:  support@scm.com   info@scm.com                                   *
 *                                                                             *
 *   Scientific publications using ADF results must be properly referenced     *
 *   See the User Manuals (or the web site) for recommended citations          *
 *   The terms and conditions of the End User License Agreement apply to       *
 *   the use of ADF, http://www.scm.com/Sales/LicAgreement.html                *
 *                                                                             *
 *****************************  pentium64_linux  *******************************
 
 DIRAC 2012.01  RunTime: Sep03-2015 07:38:44  Nodes: 1  Procs: 1

 Temporary files are created in /tmp/2102639.1.batch.q/kid_0.10G4DQ

1
 SILVER ATOM 3d CORE RELATIVISTIC, Point Nuc, A and c from li
 N J RN H ZN XION ANUC CLIGHT
 5000   15100.00000000197.36710137 47.00000000  0.00000000  106.905093  0.1370360E+03
  PH   PHI     EPS        DEL        DELRVR
  0.30  0.30     2500.00  0.00001000  0.00001000
 IDIRC  NC1  NDEBU NPRIN  IPUN IRCOR IWCOR
   1   300     0     0     0     0     9
   XALPHA      XLATTER      RNUC
  0.70000000  0.00000000  0.00000000 Point Charge
   XN   XL   XJ      XE          XZ      XDELL
  1.0  0.0  0.5   -1500.000       2.000     0.00000
  2.0  0.0  0.5    -325.000       2.000     0.00000
  2.0  1.0  0.5    -325.000       2.000     0.00000
  2.0  1.0  1.5    -325.000       4.000     0.00000
  3.0  0.0  0.5     -70.000       2.000     0.00000
  3.0  1.0  0.5     -70.000       2.000     0.00000
  3.0  1.0  1.5     -70.000       4.000     0.00000
  3.0  2.0  1.5     -60.000       4.000     0.00000
  3.0  2.0  2.5     -60.000       6.000     0.00000
  4.0  0.0  0.5     -10.000       2.000     0.00000
  4.0  1.0  0.5     -10.000       2.000     0.00000
  4.0  1.0  1.5     -10.000       4.000     0.00000
  4.0  2.0  1.5      -1.000       4.000     0.00000
  4.0  2.0  2.5      -1.000       6.000     0.00000
  5.0  0.0  0.5      -0.500       1.000     0.00000
 ICORP=  0  NPCL=  0  DEMP=0.00  PEPS=0.000000
 R(1)=  0.1000000E-08 D=  0.1005080E+01 RNUC=  0.0000000E+00
 converged at cycle   37  DENSITY AVERAGING    0.1536
  MAXIMUM ERROR IN R.V(R) IS   0.73266205E-05
 Q,EY,EV,EZ,ESUM,ETOT,RHO  0.470000E+02 -0.196167E+03 -0.876390E+04 -0.128962E+05 -0.319969E+04 -0.531488E+04  0.734901E-11


 DIRAC CALCULATION
1                    SILVER ATOM 3d CORE RELATIVISTIC, Point Nuc, A and c from libtc


 EXCHANGE COEFFICIENT=  0.7000000           TAIL CORRECTION=  0.           NUCLEAR RADIUS=  0.000E+00
0                       ORBITAL    N    L    J     ELECTRONS     EIGENVALUE                DELTA OF EIGENV.

                          1S1/2  1.0  0.0  0.5     2.000       -0.9298445E+03                 0.2273091E-04
                          2S1/2  2.0  0.0  0.5     2.000       -0.1369628E+03                 0.3639498E-04
                          2P1/2  2.0  1.0  0.5     2.000       -0.1273849E+03                 0.3693015E-04
                          2P3/2  2.0  1.0  1.5     4.000       -0.1209397E+03                 0.3702741E-04
                          3S1/2  3.0  0.0  0.5     2.000       -0.2508734E+02                 0.1716513E-04
                          3P1/2  3.0  1.0  0.5     2.000       -0.2126622E+02                 0.1799299E-04
                          3P3/2  3.0  1.0  1.5     4.000       -0.2012758E+02                 0.1718269E-04
                          3D3/2  3.0  2.0  1.5     4.000       -0.1333155E+02                 0.2053383E-04
                          3D5/2  3.0  2.0  2.5     6.000       -0.1310170E+02                 0.2025648E-04
                          4S1/2  4.0  0.0  0.5     2.000       -0.3467319E+01                 0.6825765E-06
                          4P1/2  4.0  1.0  0.5     2.000       -0.2259901E+01                 0.4193829E-06
                          4P3/2  4.0  1.0  1.5     4.000       -0.2069785E+01                 0.2705207E-06
                          4D3/2  4.0  2.0  1.5     4.000       -0.2640772E+00                 0.3034642E-06
                          4D5/2  4.0  2.0  2.5     6.000       -0.2433402E+00                 0.3285318E-06
                          5S1/2  5.0  0.0  0.5     1.000       -0.1450750E+00                 0.2931479E-06


                                        NUCLEAR CHARGE=   47.000000
                            INTEGRAL OF CHARGE DENSITY=   47.000000
                           SUM OF THE ORBITAL ENERGIES=  -3199.6921
                                          TOTAL ENERGY=  -5314.8812
                                        KINETIC ENERGY=   5564.2055
                             NUCLEAR ATTRACTION ENERGY= -12896.1922
                             ELECTRON REPULSION ENERGY=   2164.2310
                                       EXCHANGE ENERGY=   -147.1255

 *******************************************************************************

                             D I R A C   E X I T
 NORMAL TERMINATION



 =================
 Timing Statistics
 =================
  
 Total Used :                     CPU=        0.59      System=        2.03     Elapsed=        3.20

 Calls  Section                     ( Mean, Percentage )
 ---------------------------------------------------------------------------------------------------
     2  ><      ................      0.00    0.00             0.00    0.00             0.00    0.00
     1  EXIT PROCEDURE .........      0.59  100.00             2.03  100.00             3.20  100.00


 Currently Open Files (EXIT00)
 ====================

 Unit    Access Format  Status   Type       Ident (file)
 -------------------------------------------------------
   3      SEQ    FORM   TRANSP  NORMAL      LOGFILE
                                          ( logfile )


 Buffered I/O statistics
 =======================
 Memory available:                    268435456
 Number of records fitting in memory:     64527
 Input : 100.0% of                            0  *4k bytes
 Output: 100.0% of                            0  *4k bytes
 Records from serial files evicted:           0
                    others evicted:           0
 Hash table lookups:          0 with          0 conflicts (100.00%)
(INPUT FILE)
Create Ag   file=/homes/cmaikens/adf2012.01/atomicdata/ZORA/TZP/Ag.3d
XC
GGA Becke Perdew
End
relativistic ZORA
Corepotentials t12.rel
End Input

 *******************************************************************************
 *                                                                             *
 *  -------------------------------------                                      *
 *   Amsterdam Density Functional  (ADF)         2012.01   January 26, 2012    *
 *  -------------------------------------                                      *
 *                                               Build 201201262307            *
 *                                                                             *
 *                                                                             *
 *                              =================                              *
 *                              |               |                              *
 *                              |     A D F     |                              *
 *                              |               |                              *
 *                              =================                              *
 *                                                                             *
 *                                                                             *
 *   Online information and documentation:  http://www.scm.com                 *
 *   E-mail:  support@scm.com   info@scm.com                                   *
 *                                                                             *
 *   Scientific publications using ADF results must be properly referenced     *
 *   See the User Manuals (or the web site) for recommended citations          *
 *   The terms and conditions of the End User License Agreement apply to       *
 *   the use of ADF, http://www.scm.com/Sales/LicAgreement.html                *
 *                                                                             *
 **********************  pentium64_linux / platform_mpi  ***********************
 
 ADF 2012.01  RunTime: Sep03-2015 07:38:48  Nodes: 1  Procs: 1

 Temporary files are created in /tmp/2102639.1.batch.q/kid_0.gT4aCI

 Silver (TZP, 3d frozen)



 ===========================
 A T T A C H E D   F I L E S
 ===========================
  
 CREATE - Data File:    /homes/cmaikens/adf2012.01/atomicdata/ZORA/TZP/Ag.3d
                        Silver (TZP, 3d frozen)
 Core Potentials:
         file : t12.rel



 ===============================
 M O D E L   P A R A M E T E R S
 ===============================
  
 DENSITY FUNCTIONAL POTENTIAL (scf)
    LDA:                               VWN                                      
    Gradient Corrections:              Becke88 Perdew86                        == Not Default ==

 SPIN  (restricted / unrestr.)
    Molecule:                          Restricted                               

 OTHER ASPECTS
    Relativistic Corrections:          scalar (ZORA,SAPA)                       *** SPECIAL ***

    Nuclear Charge Density Model:      Point Charge Nuclei                                                                                                                                                                                     
    Core Treatment:                    Frozen Orbital(s)                        

    Electric Field:                    ---                                      

    Hyperfine or Zeeman Interaction:   ---                                      



 =====================================
 S Y M M E T R Y ,   E L E C T R O N S
 =====================================
  
 Symmetry: ATOM

 Irreducible Representations, including subspecies
 -------------------------------------------------
 S
 P:x  P:y  P:z
 D:z2  D:x2-y2  D:xy  D:xz  D:yz
 F:z3  F:z  F:xyz  F:z2x  F:z2y  F:x  F:y


 Configuration of Valence Electrons
 ==================================

          Occupation Numbers
          -------------------------------------------------
 S        2 1
 P        6
 D        10
 F        0
          -------------------------------------------------

 Total:   19

 Net Charge: 0 (Nuclei minus Electrons)

 Preset values for MO occupations will be applied through SCF cycle no. 1000000
 Thereafter, the program will assign electrons to MOs that are spatially
 similar to the occupied MOs in a "reference" cycle ("KeepOrbitals").
 The reference cycle is always the PREVIOUS cycle: it will evolve with
 the SCF procedure.



 ================================
 (Slater-type)  F U N C T I O N S  ***  (Basis and Fit)  ***
 ================================
  

 Atom Type    1  (Ag)
 ==============

 Valence Basis Sets:  18
 -----------------------
   1 S   30.800000
   2 S   20.300000
   3 S    9.550000
   2 P   21.100000
   3 P   10.100000
   3 D   11.650000
   4 S    6.350000
   4 S    4.050000
   5 S    2.600000
   5 S    1.550000
   5 S    0.950000
   4 P    6.150000
   4 P    4.150000
   4 P    2.900000
   4 D    4.750000
   4 D    2.600000
   4 D    1.380000
   5 P    1.550000

 Frozen Core Shells
 ------------------
    S:  3
    P:  2
    D:  1

 Charge Fitting Sets (for the computation of the Coulomb Potential):  51
 -----------------------------------------------------------------------
   1 S   61.600000
   1 S   36.350000
   2 S   39.760000
   3 S   38.850000
   3 S   27.540000
   4 S   25.820000
   4 S   19.060000
   5 S   17.540000
   5 S   13.330000
   6 S   12.140000
   6 S    9.440000
   7 S    8.550000
   7 S    6.760000
   8 S    6.110000
   8 S    4.900000
   8 S    3.930000
   9 S    3.550000
   9 S    2.880000
   9 S    2.340000
   9 S    1.900000
   2 P   51.900000
   3 P   41.280000
   4 P   32.450000
   5 P   25.520000
   6 P   20.150000
   6 P   13.650000
   7 P   10.840000
   7 P    7.550000
   8 P    6.030000
   8 P    4.290000
   9 P    3.450000
   9 P    2.500000
   3 D   42.450000
   4 D   30.180000
   5 D   21.700000
   6 D   15.790000
   6 D    9.890000
   7 D    7.280000
   7 D    4.710000
   8 D    3.510000
   8 D    2.330000
   4 F   32.800000
   5 F   21.490000
   6 F   14.360000
   6 F    8.280000
   7 F    5.640000
   7 F    3.380000
   5 G   23.300000
   6 G   11.600000
   7 G    6.010000
   7 G    2.760000


 BAS: List of all Elementary Cartesian Basis Functions
 =====================================================

 The numbering in the list below (to the right of the function characteristics) is referred
 to in print-outs of MO eigenvectors and Mulliken populations in the BAS representation
 (as contrasted to the SFO representation).

 Notes:
 1. The functions are characterized by a polynomial prefactor (powers of x,y,z and r) and
    an exponential decay factor alpha.
 2. Since the basis sets are specific for an atom TYPE, the individual functions occur on
    all atoms of that type.
 3. The word 'Core' in the left margin signals that it is a Core Function (CF) : not a
    degree of freedom in the valence set, but only used to ensure orthogonalization of
    the other valence basis functions on the frozen Core Orbitals.


 (power of) X  Y  Z  R     Alpha  on Atom
            ==========     =====     ==========

 Ag                                   1
                                  ---------------------------------------------------------------------------
    Core    0  0  0  0    30.800      1
    Core    0  0  0  1    20.300      2
    Core    0  0  0  2     9.550      3
    Core    1  0  0  0    21.100      4
    Core    0  1  0  0    21.100      5
    Core    0  0  1  0    21.100      6
    Core    1  0  0  1    10.100      7
    Core    0  1  0  1    10.100      8
    Core    0  0  1  1    10.100      9
    Core    2  0  0  0    11.650     10
    Core    1  1  0  0    11.650     11
    Core    1  0  1  0    11.650     12
    Core    0  2  0  0    11.650     13
    Core    0  1  1  0    11.650     14
    Core    0  0  2  0    11.650     15
            0  0  0  3     6.350     16
            0  0  0  3     4.050     17
            0  0  0  4     2.600     18
            0  0  0  4     1.550     19
            0  0  0  4     0.950     20
            1  0  0  2     6.150     21
            0  1  0  2     6.150     22
            0  0  1  2     6.150     23
            1  0  0  2     4.150     24
            0  1  0  2     4.150     25
            0  0  1  2     4.150     26
            1  0  0  2     2.900     27
            0  1  0  2     2.900     28
            0  0  1  2     2.900     29
            2  0  0  1     4.750     30
            1  1  0  1     4.750     31
            1  0  1  1     4.750     32
            0  2  0  1     4.750     33
            0  1  1  1     4.750     34
            0  0  2  1     4.750     35
            2  0  0  1     2.600     36
            1  1  0  1     2.600     37
            1  0  1  1     2.600     38
            0  2  0  1     2.600     39
            0  1  1  1     2.600     40
            0  0  2  1     2.600     41
            2  0  0  1     1.380     42
            1  1  0  1     1.380     43
            1  0  1  1     1.380     44
            0  2  0  1     1.380     45
            0  1  1  1     1.380     46
            0  0  2  1     1.380     47
            1  0  0  3     1.550     48
            0  1  0  3     1.550     49
            0  0  1  3     1.550     50

 Total number of charge fitting functions (nprimf)       230
 Total number of Cartesian basis functions (naos)         50
 Total number of Cartesian core functions  (ncos)         15



 BAS: List of all Elementary Cartesian Basis Functions
 =====================================================

 The numbering in the list below (to the right of the function characteristics) is referred
 to in print-outs of MO eigenvectors and Mulliken populations in the BAS representation
 (as contrasted to the SFO representation).

 Notes:
 1. The functions are characterized by a polynomial prefactor (powers of x,y,z and r) and
    an exponential decay factor alpha.
 2. Since the basis sets are specific for an atom TYPE, the individual functions occur on
    all atoms of that type.
 3. The word 'Core' in the left margin signals that it is a Core Function (CF) : not a
    degree of freedom in the valence set, but only used to ensure orthogonalization of
    the other valence basis functions on the frozen Core Orbitals.


 (power of) X  Y  Z  R     Alpha  on Atom
            ==========     =====     ==========

 Ag                                   1
                                  ---------------------------------------------------------------------------
    Core    0  0  0  0    30.800      1
    Core    0  0  0  1    20.300      2
    Core    0  0  0  2     9.550      3
    Core    1  0  0  0    21.100      4
    Core    0  1  0  0    21.100      5
    Core    0  0  1  0    21.100      6
    Core    1  0  0  1    10.100      7
    Core    0  1  0  1    10.100      8
    Core    0  0  1  1    10.100      9
    Core    2  0  0  0    11.650     10
    Core    1  1  0  0    11.650     11
    Core    1  0  1  0    11.650     12
    Core    0  2  0  0    11.650     13
    Core    0  1  1  0    11.650     14
    Core    0  0  2  0    11.650     15
            0  0  0  3     6.350     16
            0  0  0  3     4.050     17
            0  0  0  4     2.600     18
            0  0  0  4     1.550     19
            0  0  0  4     0.950     20
            1  0  0  2     6.150     21
            0  1  0  2     6.150     22
            0  0  1  2     6.150     23
            1  0  0  2     4.150     24
            0  1  0  2     4.150     25
            0  0  1  2     4.150     26
            1  0  0  2     2.900     27
            0  1  0  2     2.900     28
            0  0  1  2     2.900     29
            2  0  0  1     4.750     30
            1  1  0  1     4.750     31
            1  0  1  1     4.750     32
            0  2  0  1     4.750     33
            0  1  1  1     4.750     34
            0  0  2  1     4.750     35
            2  0  0  1     2.600     36
            1  1  0  1     2.600     37
            1  0  1  1     2.600     38
            0  2  0  1     2.600     39
            0  1  1  1     2.600     40
            0  0  2  1     2.600     41
            2  0  0  1     1.380     42
            1  1  0  1     1.380     43
            1  0  1  1     1.380     44
            0  2  0  1     1.380     45
            0  1  1  1     1.380     46
            0  0  2  1     1.380     47
            1  0  0  3     1.550     48
            0  1  0  3     1.550     49
            0  0  1  3     1.550     50
1
 ***************************************************************************************************



                                              ***********************
                                              *  T E C H N I C A L  *
                                              ***********************
  



 =============================================================
 P A R A L L E L I Z A T I O N  and  V E C T O R I Z A T I O N
 =============================================================
  
 Nr of parallel processes:                                1
 Maximum vector length in NumInt loops:                 128



 ===============
 I O  vs.  C P U  ***  (store numerical data on disk or recalculate)  ***
 ===============
  
 Basis functions:   recalculate when needed
 Fit functions:     recalculate when needed

 IO buffersize (Mb):                                    256.000000



 =====================
 S C F   U P D A T E S
 =====================
  
 Max. nr. of cycles:                               100
 Convergence criterion:                              0.0000000100
   secondary criterion:                              0.0000000100

 Mix parameter (when DIIS does not apply):           0.2000000000
 Special mix parameter for the first cycle:          1.0000000000


 DIIS (Direct Inversion in Iteration Space)
    Replace damping when SCF Error is below:         0.5000000000
    Apply anyway after SCF cycle:
                                                     5
    (Max.) nr. of expansion vectors:                10

    Upperbound on expansion coefficients:            5.0000000000
    (when exceeded, IterationSpace is re-built)
    2nd Upperbound on coefficients:                 25.0000000000
    (when exceeded, simple damping will be used)
 Automatic ElectronSmearing (in case of problematic SCF convergence) disabled



 =================
 P R E C I S I O N  ***  (General: NumInt, NeglectFunctionTails, ...)  ***
 =================
  

 NumInt:           Target precision:                10.0000000000
 -------           Initial precision:               10.0000000000
                   Min. precision (optimization):   10.0000000000

 Neglect Functions:          Basis functions:        0.1000000000E-11
 ------------------          Fit functions:          0.1000000000E-11



 ===========================
 L I N E A R   S C A L I N G
 ===========================
  

 Cut-off radii density fit:                        0.1000000000E-13
 Overlap cut-off criterion AO matrix elements:     0.1000000000E-11
 Cut-offs for Coulomb potential and fitted density:0.1000000000E-13
 Cut-off criterion for Coulomb multipole terms:    0.1000000000E-13
 Progressive Convergence parameter:                 0.000000000    
1
 ***************************************************************************************************



                                            ***************************
                                            *  C O M P U T A T I O N  *
                                            ***************************
  

 Number of elements of the density matrix on this node (used, total):      1275      1275



 ====================================================
 Numerical Integration : Voronoi Polyhedra (Te Velde)  ***  (parameters, tests)  ***
 ====================================================
  
 General Accuracy Parameter :                         10.00

 Symmetry used in the points section:  ATOM  


 Summary of the Symmetry Unique Points:
 --------------------------------------
    Nr. of used Symmetry Operators                     1

    Points in the Atomic Spheres                      94
    Points in the Atomic Polyhedra                     0
    Points in the Outer Region                         0
    ----------------------------------------------------
    Total                                             94

    Sum of Weights                                114259.875357

 Total nr. of points:         94
 Nr. of blocks:                1
 Block length:                94
 Nr. of dummy points:          0


 Test of Precision of the Numerical Integration Grid
 ===================================================

 Integral of the Total Core Density:                  27.99999992831499
 Relative Error:                                      -2.560E-09



 =====
 S C F
 =====
  

 CYCLE    1
 orbitals (Q,E):
 ---------------
 S :1...5            ( 2.00    -3.4932)  ( 1.00    -0.1678)  ( 0.00     0.0495)  ( 0.00     0.5481)
                     ( 0.00     4.1890)
 P :1...4            ( 6.00    -2.1702)  ( 0.00     0.0010)  ( 0.00     0.9464)  ( 0.00     6.3133)
 D :1...3            (10.00    -0.2809)  ( 0.00     0.2936)  ( 0.00     2.2251)

 CYCLE    2
 d-Pmat  mean:  0.22E-02
 imax=     33: -0.66E-02
 orbitals (Q,E):
 ---------------
 S :1...3            ( 2.00    -3.4789)  ( 1.00    -0.1655)  ( 0.00     0.0499)
 P :1...2            ( 6.00    -2.1568)  ( 0.00     0.0025)
 D :1...2            (10.00    -0.2711)  ( 0.00     0.2958)

 CYCLE    3
 d-Pmat  mean:  0.14E-02
 imax=     35:  0.43E-02
 orbitals (Q,E):
 ---------------
 S :1...3            ( 2.00    -3.4878)  ( 1.00    -0.1670)  ( 0.00     0.0494)
 P :1...2            ( 6.00    -2.1651)  ( 0.00     0.0014)
 D :1...2            (10.00    -0.2771)  ( 0.00     0.2943)

 CYCLE    4
 d-Pmat  mean:  0.75E-04
 imax=     18:  0.23E-03
 orbitals (Q,E):
 ---------------
 S :1...3            ( 2.00    -3.4884)  ( 1.00    -0.1672)  ( 0.00     0.0493)
 P :1...2            ( 6.00    -2.1657)  ( 0.00     0.0012)
 D :1...2            (10.00    -0.2776)  ( 0.00     0.2941)

 CYCLE    5
 d-Pmat  mean:  0.28E-05
 imax=     18: -0.99E-05
 orbitals (Q,E):
 ---------------
 S :1...3            ( 2.00    -3.4884)  ( 1.00    -0.1672)  ( 0.00     0.0493)
 P :1...2            ( 6.00    -2.1657)  ( 0.00     0.0012)
 D :1...2            (10.00    -0.2775)  ( 0.00     0.2941)

 CYCLE    6
 d-Pmat  mean:  0.17E-07
 imax=     19: -0.13E-06
 orbitals (Q,E):
 ---------------
 S :1...3            ( 2.00    -3.4884)  ( 1.00    -0.1672)  ( 0.00     0.0493)
 P :1...2            ( 6.00    -2.1657)  ( 0.00     0.0012)
 D :1...2            (10.00    -0.2775)  ( 0.00     0.2941)

 CYCLE    7
 d-Pmat  mean:  0.11E-08
 imax=     19: -0.11E-07
 orbitals (Q,E):
 ---------------
 S :1...3            ( 2.00    -3.4884)  ( 1.00    -0.1672)  ( 0.00     0.0493)
 P :1...2            ( 6.00    -2.1657)  ( 0.00     0.0012)
 D :1...2            (10.00    -0.2775)  ( 0.00     0.2941)

 SCF CONVERGED

 CYCLE    8
1
 ***************************************************************************************************



                                                *******************
                                                *  R E S U L T S  *
                                                *******************
  
 *** Setting up for NEW gradients in focky
 *** Using FIT density in focky
 XCFun disabled
 XCFun disabled
 XCFun disabled

 Scaled ZORA Orbital Energies, per Irrep and Spin:
 =================================================
                        Occup              E (au)              E (eV)       Diff (eV) with prev. cycle
                        -----      --------------------        ------       --------------------------
 S
               1        2.000     -0.34883937327255E+01       -94.924               1.01E-09
               2        1.000     -0.16721774376307E+00        -4.550               8.48E-10
               3        0.000      0.49292090859751E-01         1.341
               4        0.000      0.54900113066203E+00        14.939
               5        0.000      0.41923034015691E+01       114.078
 P
               1        6.000     -0.21656535049739E+01       -58.930               1.04E-09
               2        0.000      0.12312059741376E-02         0.034
               3        0.000      0.94805018589873E+00        25.798
               4        0.000      0.63168566721937E+01       171.890
 D
               1       10.000     -0.27753746737237E+00        -7.552               1.07E-09
               2        0.000      0.29412398526233E+00         8.004
               3        0.000      0.22279871540449E+01        60.627


 Partially Occupied:
               2 S                -0.16721774376307E+00
  
 HOMO :        1 D                -0.27753746737237E+00
 LUMO :        2 P                 0.12312059741376E-02
  


 Orbital Energies, all Irreps
 ========================================

 Irrep        no.  (spin)   Occup              E (au)                E (eV)
 ---------------------------------------------------------------------------
 S             1             2.00       -0.34883937327255E+01       -94.9240
 P             1             6.00       -0.21656535049739E+01       -58.9304
 D             1            10.00       -0.27753746737237E+00        -7.5522
 S             2             1.00       -0.16721774376307E+00        -4.5502
 P             2             0.00        0.12312059741376E-02         0.0335
 S             3             0.00        0.49292090859751E-01         1.3413
 D             2             0.00        0.29412398526233E+00         8.0035
 S             4             0.00        0.54900113066203E+00        14.9391
 P             3             0.00        0.94805018589873E+00        25.7978
 D             3             0.00        0.22279871540449E+01        60.6266
 S             5             0.00        0.41923034015691E+01       114.0784
 P             4             0.00        0.63168566721937E+01       171.8904


 Scaled ZORA Orbital Energies of the Core Orbitals:
 ==================================================

 (Note that the atoms are grouped by atomtype, see the labels, and may hence NOT be in input order)

 AtomType  Orbital  Atom                   E (au)                        E (eV)
 --------  -------  ----           --------------------        ----------------
 Ag          1S        1          -0.93051917515589E+03              -25320.715
             2S        1          -0.13700540306455E+03               -3728.107
             3S        1          -0.25114511935225E+02                -683.401
             2P        1          -0.12286153862350E+03               -3343.233
             3P        1          -0.20498924322833E+02                -557.804
             3D        1          -0.13198949396919E+02                -359.162



 =======================================
 M U L L I K E N   P O P U L A T I O N S
 =======================================
  
 The survey below gives for each atom:
 a) the total charge (Z minus electrons)
 b) the net spin polarization (nr of electrons spin-A minus spin-B)
 c) for each spin the atomic electron valence density (integrated) per L-value.

 Atom              Charge    Spin density          S         P         D         F
 ----              ------    ------------       ------    ------    ------    ------
 1 Ag              0.0000                       3.0000    6.0000   10.0000    0.0000

 Populations of individual BAS functions
 ----------------------------------------
 1 Ag          -0.0085  0.0044 -0.0712  0.0003  0.0003  0.0003  0.0270  0.0270  0.0270  0.0387
                0.0580  0.0580  0.0387  0.0580  0.0387  1.3215  0.7613  0.3605  0.5376  0.0943
                0.7450  0.7450  0.7450  1.0681  1.0681  1.0681  0.1587  0.1587  0.1587  0.5515
                0.8273  0.8273  0.5515  0.8273  0.5515  0.6409  0.9614  0.9614  0.6409  0.9614
                0.6409  0.1022  0.1533  0.1533  0.1022  0.1533  0.1022  0.0010  0.0010  0.0010

 Gross Charges per Atom (Z minus electrons)
 ==========================================
             0.0000
 Net Total:  0.00000000


 Atom-Atom Population Matrix (off-diagonal elements not doubled)
 ===============================================================

     1 :    19.0000



 =============
 Dipole Moment  ***  (Debye)  ***
 =============
  
 Vector   :         0.00000000      0.00000000      0.00000000
 Magnitude:         0.00000000

 This molecular dipole moment is calculated with analytic integration



 =========================================
 Quadrupole Moment (Buckingham convention)  ***  (a.u.)  ***
 =========================================
  
      quad-xx        quad-xy        quad-xz        quad-yy        quad-yz        quad-zz
      0.00000000     0.00000000     0.00000000     0.00000000     0.00000000     0.00000000

 This molecular quadrupole moment is calculated with analytic integration



 ===============================================================================
 Electrostatic potential at the Nuclei due to valence electrons and other nuclei
 ===============================================================================
  
         Atom                  Potential
         ----                  ---------
     1)   Ag                 21.10983739
 
 
 ========================
 No memory problems found
 ========================
 
 Maximum number of active allocate calls:         391
 
 *******************************************************************************

                             A D F   E X I T
 NORMAL TERMINATION



 =================
 Timing Statistics
 =================
  
 Total Used :                     CPU=        0.28      System=        5.24     Elapsed=        5.66

 Calls  Section                     ( Mean, Percentage )
 ---------------------------------------------------------------------------------------------------
     3  ><      ................      0.00    3.57             0.10    5.92             0.11    5.59
     1  INIT    ................      0.00    0.00             0.03    0.57             0.12    2.05
     1  GEOMET  ................      0.01    3.57             4.41   84.16             4.48   79.12
     1  INPUTA  ................      0.00    0.00             0.05    0.95             0.05    0.96
     1  MAINSY  ................      0.01    3.57             0.01    0.19             0.02    0.37
     1  SYMFIT  ................      0.00    0.00             0.00    0.00             0.00    0.01
     1  CORORT  ................      0.00    0.00             0.00    0.00             0.00    0.01
     1  SYMORB  ................      0.01    3.57             0.00    0.00             0.00    0.01
     1  FITINT  ................      0.00    0.00             0.00    0.00             0.01    0.12
     1  CLSMAT  ................      0.00    0.00             0.00    0.00             0.00    0.01
     1  ORTHON  ................      0.00    0.00             0.00    0.00             0.00    0.03
     1  ETALOW  ................      0.00    0.00             0.00    0.00             0.00    0.01
     1  GENPT   ................      0.02    7.14             0.00    0.00             0.02    0.27
     1  PTBAS   ................      0.00    0.00             0.00    0.00             0.00    0.06
     8  FOCKY   ................      0.02   53.57             0.05    7.82             0.07   10.00
     8  FOCKTR  ................      0.00    0.00             0.00    0.19             0.00    0.05
     8  FOCKNM  ................      0.00    0.00             0.00    0.00             0.00    0.01
     8  SDIIS   ................      0.00    0.00             0.00    0.00             0.00    0.07
     8  EMERGE  ................      0.00   10.71             0.00    0.00             0.00    0.43
     1  COREPS  ................      0.01    3.57             0.00    0.00             0.01    0.26
     1  POPAN   ................      0.00    0.00             0.01    0.19             0.00    0.05
     1  DEBYE   ................      0.00    0.00             0.00    0.00             0.00    0.01
     1  QMPOT   ................      0.00    0.00             0.00    0.00             0.01    0.12
     1  EXIT PROCEDURE .........      0.03   10.71             0.00    0.00             0.02    0.39


 Currently Open Files (EXIT00)
 ====================

 Unit    Access Format  Status   Type       Ident (file)
 -------------------------------------------------------
   3      SEQ    FORM   TRANSP  NORMAL      LOGFILE
                                          ( logfile )


 Buffered I/O statistics
 =======================
 Memory available:                    268435456
 Number of records fitting in memory:     64527
 Input :   1.3% of                         3830  *4k bytes
 Output:  10.3% of                         1959  *4k bytes
 Records from serial files evicted:           0
                    others evicted:           0
 Hash table lookups:      15695 with          0 conflicts (  0.00%)

 ***************************************************************************************************
 (LOGFILE)
 <Sep03-2015> <07:38:27>  DIRAC 2012.01  RunTime: Sep03-2015 07:38:27  Nodes: 1  Procs: 1
 <Sep03-2015> <07:38:27>  NORMAL TERMINATION
 <Sep03-2015> <07:38:38>  END
 <Sep03-2015> <07:38:39>  ADF 2012.01  RunTime: Sep03-2015 07:38:39  Nodes: 1  Procs: 1
 <Sep03-2015> <07:38:39>  Hydrogen (TZP)
 <Sep03-2015> <07:38:44>  RunType   : CREATE
 <Sep03-2015> <07:38:44>  Net Charge: 0 (Nuclei minus Electrons)
 <Sep03-2015> <07:38:44>  Symmetry  : ATOM
 <Sep03-2015> <07:38:44>  >>>> CORORT
 <Sep03-2015> <07:38:44>  >>>> FITINT
 <Sep03-2015> <07:38:44>  >>>> CLSMAT
 <Sep03-2015> <07:38:44>  >>>> ORTHON
 <Sep03-2015> <07:38:44>  >>>> GENPT
 <Sep03-2015> <07:38:44>  Acc.Num.Int.=  10.000
 <Sep03-2015> <07:38:44>  Block Length=  35
 <Sep03-2015> <07:38:44>  >>>> PTBAS
 <Sep03-2015> <07:38:44>  >>>> CYCLE
 <Sep03-2015> <07:38:44>    1
 <Sep03-2015> <07:38:44>    2  ErrMat   0.00258453  MaxEl -0.00253172
 <Sep03-2015> <07:38:44>    3  ErrMat   0.00050241  MaxEl  0.00048214
 <Sep03-2015> <07:38:44>    4  ErrMat   0.00000638  MaxEl  0.00000533
 <Sep03-2015> <07:38:44>    5  ErrMat   0.00000001  MaxEl -0.00000001
 <Sep03-2015> <07:38:44>  SCF converged
 <Sep03-2015> <07:38:44>    6  ErrMat   0.00000000  MaxEl  0.00000000
 <Sep03-2015> <07:38:44>   Solutions with partially occupied orbitals may not be
 <Sep03-2015> <07:38:44>   lowest in energy. You might consider lowering the
 <Sep03-2015> <07:38:44>   symmetry in the input and explicitly specifying integer
 <Sep03-2015> <07:38:44>   occupations. In that case always check that you obtain
 <Sep03-2015> <07:38:44>   an aufbau solution.
 <Sep03-2015> <07:38:44>  >>>> POPAN
 <Sep03-2015> <07:38:44>  >>>> DEBYE
 <Sep03-2015> <07:38:44>  NORMAL TERMINATION
 <Sep03-2015> <07:38:44>  END
 <Sep03-2015> <07:38:44>  DIRAC 2012.01  RunTime: Sep03-2015 07:38:44  Nodes: 1  Procs: 1
 <Sep03-2015> <07:38:45>  NORMAL TERMINATION
 <Sep03-2015> <07:38:48>  END
 <Sep03-2015> <07:38:48>  ADF 2012.01  RunTime: Sep03-2015 07:38:48  Nodes: 1  Procs: 1
 <Sep03-2015> <07:38:48>  Silver (TZP, 3d frozen)
 <Sep03-2015> <07:38:53>  RunType   : CREATE
 <Sep03-2015> <07:38:53>  Net Charge: 0 (Nuclei minus Electrons)
 <Sep03-2015> <07:38:53>  Symmetry  : ATOM
 <Sep03-2015> <07:38:53>  >>>> CORORT
 <Sep03-2015> <07:38:53>  >>>> FITINT
 <Sep03-2015> <07:38:53>  >>>> CLSMAT
 <Sep03-2015> <07:38:53>  >>>> ORTHON
 <Sep03-2015> <07:38:53>  >>>> GENPT
 <Sep03-2015> <07:38:53>  Acc.Num.Int.=  10.000
 <Sep03-2015> <07:38:53>  Block Length=  94
 <Sep03-2015> <07:38:53>  >>>> PTBAS
 <Sep03-2015> <07:38:53>  >>>> CYCLE
 <Sep03-2015> <07:38:53>    1
 <Sep03-2015> <07:38:54>    2  ErrMat   0.02728591  MaxEl  0.00887264
 <Sep03-2015> <07:38:54>    3  ErrMat   0.05713964  MaxEl -0.01729688
 <Sep03-2015> <07:38:54>    4  ErrMat   0.00229105  MaxEl -0.00078765
 <Sep03-2015> <07:38:54>    5  ErrMat   0.00007667  MaxEl  0.00002781
 <Sep03-2015> <07:38:54>    6  ErrMat   0.00000030  MaxEl -0.00000012
 <Sep03-2015> <07:38:54>    7  ErrMat   0.00000001  MaxEl  0.00000000
 <Sep03-2015> <07:38:54>  SCF converged
 <Sep03-2015> <07:38:54>    8  ErrMat   0.00000000  MaxEl  0.00000000
 <Sep03-2015> <07:38:54>   Solutions with partially occupied orbitals may not be
 <Sep03-2015> <07:38:54>   lowest in energy. You might consider lowering the
 <Sep03-2015> <07:38:54>   symmetry in the input and explicitly specifying integer
 <Sep03-2015> <07:38:54>   occupations. In that case always check that you obtain
 <Sep03-2015> <07:38:54>   an aufbau solution.
 <Sep03-2015> <07:38:54>  >>>> POPAN
 <Sep03-2015> <07:38:54>  >>>> DEBYE
 <Sep03-2015> <07:38:54>  NORMAL TERMINATION
 <Sep03-2015> <07:38:54>  END

 *******************************************************************************
 *                                                                             *
 *  -------------------------------------                                      *
 *   Amsterdam Density Functional  (ADF)         2012.01   January 26, 2012    *
 *  -------------------------------------                                      *
 *                                               Build 201201262206            *
 *                                                                             *
 *                                                                             *
 *                            =====================                            *
 *                            |                   |                            *
 *                            |     D I R A C     |                            *
 *                            |                   |                            *
 *                            =====================                            *
 *                                                                             *
 *                                                                             *
 *   Online information and documentation:  http://www.scm.com                 *
 *   E-mail:  support@scm.com   info@scm.com                                   *
 *                                                                             *
 *   Scientific publications using ADF results must be properly referenced     *
 *   See the User Manuals (or the web site) for recommended citations          *
 *   The terms and conditions of the End User License Agreement apply to       *
 *   the use of ADF, http://www.scm.com/Sales/LicAgreement.html                *
 *                                                                             *
 *****************************  pentium64_linux  *******************************
 
 DIRAC 2012.01  RunTime: Sep03-2015 07:39:05  Nodes: 1  Procs: 1

 Temporary files are created in /tmp/2102639.1.batch.q/kid_0.ZY2hFU

1
 CARBON ATOM 1s CORE RELATIVISTIC, Point Nuc, A and c from li
 N J RN H ZN XION ANUC CLIGHT
 5000    4100.00000000197.36710137  6.00000000  0.00000000   12.000000  0.1370360E+03
  PH   PHI     EPS        DEL        DELRVR
  0.30  0.30     2500.00  0.00001000  0.00001000
 IDIRC  NC1  NDEBU NPRIN  IPUN IRCOR IWCOR
   1   300     0     0     0     0     1
   XALPHA      XLATTER      RNUC
  0.70000000  0.00000000  0.00000000 Point Charge
   XN   XL   XJ      XE          XZ      XDELL
  1.0  0.0  0.5      -5.000       2.000     0.00000
  2.0  0.0  0.5      -1.000       2.000     0.00000
  2.0  1.0  0.5      -1.000       2.000     0.00000
  2.0  1.0  1.5      -1.000       0.000     0.00000
 ICORP=  0  NPCL=  0  DEMP=0.00  PEPS=0.000000
 R(1)=  0.1000000E-08 D=  0.1005080E+01 RNUC=  0.0000000E+00
 converged at cycle   26  DENSITY AVERAGING    0.3000
  MAXIMUM ERROR IN R.V(R) IS   0.55010513E-05
 Q,EY,EV,EZ,ESUM,ETOT,RHO  0.600000E+01 -0.610129E+01 -0.585189E+02 -0.876464E+02 -0.211985E+02 -0.372876E+02  0.164808E-14


 DIRAC CALCULATION
1                    CARBON ATOM 1s CORE RELATIVISTIC, Point Nuc, A and c from libtc


 EXCHANGE COEFFICIENT=  0.7000000           TAIL CORRECTION=  0.           NUCLEAR RADIUS=  0.000E+00
0                       ORBITAL    N    L    J     ELECTRONS     EIGENVALUE                DELTA OF EIGENV.

                          1S1/2  1.0  0.0  0.5     2.000       -0.9959611E+01                 0.1355092E-04
                          2S1/2  2.0  0.0  0.5     2.000       -0.4708542E+00                 0.1106918E-05
                          2P1/2  2.0  1.0  0.5     2.000       -0.1687896E+00                 0.8770186E-06
                          2P3/2  2.0  1.0  1.5     0.000       -0.1684646E+00                 0.8770830E-06


                                        NUCLEAR CHARGE=    6.000000
                            INTEGRAL OF CHARGE DENSITY=    6.000000
                           SUM OF THE ORBITAL ENERGIES=    -21.1985
                                          TOTAL ENERGY=    -37.2876
                                        KINETIC ENERGY=     37.3204
                             NUCLEAR ATTRACTION ENERGY=    -87.6464
                             ELECTRON REPULSION ENERGY=     17.6144
                                       EXCHANGE ENERGY=     -4.5760

 *******************************************************************************

                             D I R A C   E X I T
 NORMAL TERMINATION



 =================
 Timing Statistics
 =================
  
 Total Used :                     CPU=        0.17      System=        5.12     Elapsed=        9.89

 Calls  Section                     ( Mean, Percentage )
 ---------------------------------------------------------------------------------------------------
     2  ><      ................      0.00    0.00             0.00    0.00             0.00    0.00
     1  EXIT PROCEDURE .........      0.17  100.00             5.12  100.00             9.89  100.00


 Currently Open Files (EXIT00)
 ====================

 Unit    Access Format  Status   Type       Ident (file)
 -------------------------------------------------------
   3      SEQ    FORM   TRANSP  NORMAL      LOGFILE
                                          ( logfile )


 Buffered I/O statistics
 =======================
 Memory available:                    268435456
 Number of records fitting in memory:     64527
 Input : 100.0% of                            0  *4k bytes
 Output: 100.0% of                            0  *4k bytes
 Records from serial files evicted:           0
                    others evicted:           0
 Hash table lookups:          0 with          0 conflicts (100.00%)
(INPUT FILE)
Create C   file=/homes/cmaikens/adf2012.01/atomicdata/ZORA/TZP/C.1s
XC
GGA Becke Perdew
End
relativistic ZORA
Corepotentials t12.rel
End Input

 *******************************************************************************
 *                                                                             *
 *  -------------------------------------                                      *
 *   Amsterdam Density Functional  (ADF)         2012.01   January 26, 2012    *
 *  -------------------------------------                                      *
 *                                               Build 201201262307            *
 *                                                                             *
 *                                                                             *
 *                              =================                              *
 *                              |               |                              *
 *                              |     A D F     |                              *
 *                              |               |                              *
 *                              =================                              *
 *                                                                             *
 *                                                                             *
 *   Online information and documentation:  http://www.scm.com                 *
 *   E-mail:  support@scm.com   info@scm.com                                   *
 *                                                                             *
 *   Scientific publications using ADF results must be properly referenced     *
 *   See the User Manuals (or the web site) for recommended citations          *
 *   The terms and conditions of the End User License Agreement apply to       *
 *   the use of ADF, http://www.scm.com/Sales/LicAgreement.html                *
 *                                                                             *
 **********************  pentium64_linux / platform_mpi  ***********************
 
 ADF 2012.01  RunTime: Sep03-2015 07:39:15  Nodes: 1  Procs: 1

 Temporary files are created in /tmp/2102639.1.batch.q/kid_0.D5EwZt

 Carbon (TZP, 1s frozen)



 ===========================
 A T T A C H E D   F I L E S
 ===========================
  
 CREATE - Data File:    /homes/cmaikens/adf2012.01/atomicdata/ZORA/TZP/C.1s
                        Carbon (TZP, 1s frozen)
 Core Potentials:
         file : t12.rel



 ===============================
 M O D E L   P A R A M E T E R S
 ===============================
  
 DENSITY FUNCTIONAL POTENTIAL (scf)
    LDA:                               VWN                                      
    Gradient Corrections:              Becke88 Perdew86                        == Not Default ==

 SPIN  (restricted / unrestr.)
    Molecule:                          Restricted                               

 OTHER ASPECTS
    Relativistic Corrections:          scalar (ZORA,SAPA)                       *** SPECIAL ***

    Nuclear Charge Density Model:      Point Charge Nuclei                                                                                                                                                                                     
    Core Treatment:                    Frozen Orbital(s)                        

    Electric Field:                    ---                                      

    Hyperfine or Zeeman Interaction:   ---                                      



 =====================================
 S Y M M E T R Y ,   E L E C T R O N S
 =====================================
  
 Symmetry: ATOM

 Irreducible Representations, including subspecies
 -------------------------------------------------
 S
 P:x  P:y  P:z
 D:z2  D:x2-y2  D:xy  D:xz  D:yz
 F:z3  F:z  F:xyz  F:z2x  F:z2y  F:x  F:y


 Configuration of Valence Electrons
 ==================================

          Occupation Numbers
          -------------------------------------------------
 S        2
 P        2
 D        0
 F        0
          -------------------------------------------------

 Total:   4

 Net Charge: 0 (Nuclei minus Electrons)

 Preset values for MO occupations will be applied through SCF cycle no. 1000000
 Thereafter, the program will assign electrons to MOs that are spatially
 similar to the occupied MOs in a "reference" cycle ("KeepOrbitals").
 The reference cycle is always the PREVIOUS cycle: it will evolve with
 the SCF procedure.



 ================================
 (Slater-type)  F U N C T I O N S  ***  (Basis and Fit)  ***
 ================================
  

 Atom Type    1  (C)
 ==============

 Valence Basis Sets:   8
 -----------------------
   1 S    5.400000
   2 S    1.280000
   2 S    2.100000
   2 S    4.600000
   2 P    0.820000
   2 P    1.480000
   2 P    2.940000
   3 D    2.200000

 Frozen Core Shells
 ------------------
    S:  1

 Charge Fitting Sets (for the computation of the Coulomb Potential):  20
 -----------------------------------------------------------------------
   1 S   10.800000
   2 S   11.590000
   2 S    7.590000
   2 S    4.970000
   3 S    4.790000
   3 S    3.350000
   3 S    2.340000
   3 S    1.640000
   2 P    8.340000
   2 P    5.140000
   3 P    4.670000
[...]
   29.H        13.066251   12.048344   14.264620
   30.H        15.141176    9.823792    8.390083
   31.H        13.975225   12.698783    9.375172
 <Sep03-2015> <08:20:17>  >>>> CORORT
 <Sep03-2015> <08:20:17>  >>>> FITINT
 <Sep03-2015> <08:20:20>  >>>> CLSMAT
 <Sep03-2015> <08:20:20>  >>>> ORTHON
 <Sep03-2015> <08:20:20>  >>>> GENPT
 <Sep03-2015> <08:20:20>  Acc.Num.Int.=   6.000
 <Sep03-2015> <08:20:20>  Reusing previous cell geometry for gradient smoothing.
 <Sep03-2015> <08:20:21>  Block Length= 128
 <Sep03-2015> <08:20:22>  >>>> PTBAS
 <Sep03-2015> <08:20:40>  >>>> SURPTS
 <Sep03-2015> <08:20:40>  combining surface points...
 <Sep03-2015> <08:20:40>  combining surface points...
 <Sep03-2015> <08:20:40>  combining surface points...
 <Sep03-2015> <08:20:40>  >>>> CYCLE
 <Sep03-2015> <08:20:48>    1
 <Sep03-2015> <08:20:59>    2  ErrMat   0.16227316  MaxEl  0.03478813
 <Sep03-2015> <08:21:09>    3  ErrMat   0.08667497  MaxEl -0.01608575
 <Sep03-2015> <08:21:20>    4  ErrMat   0.06096446  MaxEl  0.00974373
 <Sep03-2015> <08:21:30>    5  ErrMat   0.02898896  MaxEl -0.00619550
 <Sep03-2015> <08:21:41>    6  ErrMat   0.01175670  MaxEl -0.00206497
 <Sep03-2015> <08:21:51>    7  ErrMat   0.00293708  MaxEl  0.00056273
 <Sep03-2015> <08:22:02>    8  ErrMat   0.00093573  MaxEl -0.00016084
 <Sep03-2015> <08:22:12>    9  ErrMat   0.00032414  MaxEl  0.00007205
 <Sep03-2015> <08:22:23>   10  ErrMat   0.00011706  MaxEl  0.00001894
 <Sep03-2015> <08:22:33>   11  ErrMat   0.00007196  MaxEl -0.00001044
 <Sep03-2015> <08:22:44>   12  ErrMat   0.00004170  MaxEl  0.00000722
 <Sep03-2015> <08:22:54>   13  ErrMat   0.00001346  MaxEl  0.00000281
 <Sep03-2015> <08:23:05>   14  ErrMat   0.00000499  MaxEl  0.00000127
 <Sep03-2015> <08:23:15>   15  ErrMat   0.00000308  MaxEl  0.00000062
 <Sep03-2015> <08:23:15>  SCF converged
 <Sep03-2015> <08:23:25>   16  ErrMat   0.00000117  MaxEl  0.00000020
 <Sep03-2015> <08:23:26>  >>>> TOTEN
 <Sep03-2015> <08:23:50>  >>>> POPAN
 <Sep03-2015> <08:23:50>  >>>> DEBYE
 <Sep03-2015> <08:23:50>  >>>> AMETS
 <Sep03-2015> <08:23:51>  >>>> ENGRAD
 <Sep03-2015> <08:24:57>  current energy                               -4.88008416 Hartree
 <Sep03-2015> <08:24:57>  energy change                       0.00001904     0.00010000    T
 <Sep03-2015> <08:24:57>  constrained gradient max            0.00032842     0.00100000    T
 <Sep03-2015> <08:24:57>  constrained gradient rms            0.00008693     0.00066667    T
 <Sep03-2015> <08:24:57>  gradient max                        0.00032842
 <Sep03-2015> <08:24:57>  gradient rms                        0.00008693
 <Sep03-2015> <08:24:57>  cart. step max                      0.01591625     0.01000000    F
 <Sep03-2015> <08:24:57>  cart. step rms                      0.00618386     0.00666667    T
  Coordinates in Geometry Cycle 8
    Atom         X           Y           Z   (Angstrom)
    1.Ag       12.297994   10.096718    9.622045
    2.Ag       11.828322    9.648762   12.801776
    3.S        13.665530    8.037191   13.773626
    4.S        11.768732   11.638155   14.369350
    5.S        14.089927    9.003348    8.118903
    6.S        12.624152   12.640513    9.377216
    7.S        10.492925    9.008114   10.858741
    8.C        12.376320   13.041548    7.596632
    9.C        14.751037    7.501697    8.956845
   10.C        11.009115   13.060297   13.478417
   11.C        10.731082    7.176916   10.641079
   12.C        13.346464    7.842020   15.578394
   13.H        11.297988   12.972551    7.420750
   14.H        12.907615   12.328451    6.961284
   15.H        12.719981   14.064048    7.417045
   16.H        14.942771    7.698765   10.014679
   17.H        15.664020    7.185181    8.444255
   18.H        13.979940    6.732241    8.848191
   19.H         9.940182   12.834544   13.411270
   20.H        11.436120   13.161080   12.476936
   21.H        11.163609   13.968562   14.068343
   22.H        10.052665    6.660188   11.329442
   23.H        11.762498    6.882911   10.854188
   24.H        10.475189    6.912787    9.609052
   25.H        13.102474    8.804425   16.035550
   26.H        14.225866    7.392984   16.049237
   27.H        12.492733    7.161278   15.661151
   28.H        14.670908    8.945638   13.880208
   29.H        13.060739   12.048824   14.269379
   30.H        15.142754    9.818239    8.391149
   31.H        13.981919   12.692777    9.372044
 <Sep03-2015> <08:24:57>  >>>> CORORT
 <Sep03-2015> <08:24:57>  >>>> FITINT
 <Sep03-2015> <08:25:00>  >>>> CLSMAT
 <Sep03-2015> <08:25:00>  >>>> ORTHON
 <Sep03-2015> <08:25:00>  >>>> GENPT
 <Sep03-2015> <08:25:00>  Acc.Num.Int.=   6.000
 <Sep03-2015> <08:25:01>  Reusing previous cell geometry for gradient smoothing.
 <Sep03-2015> <08:25:01>  Block Length= 128
 <Sep03-2015> <08:25:02>  >>>> PTBAS
 <Sep03-2015> <08:25:21>  >>>> SURPTS
 <Sep03-2015> <08:25:21>  combining surface points...
 <Sep03-2015> <08:25:21>  combining surface points...
 <Sep03-2015> <08:25:21>  combining surface points...
 <Sep03-2015> <08:25:21>  >>>> CYCLE
 <Sep03-2015> <08:25:28>    1
 <Sep03-2015> <08:25:39>    2  ErrMat   0.16109059  MaxEl  0.03475082
 <Sep03-2015> <08:25:50>    3  ErrMat   0.08572555  MaxEl -0.01574454
 <Sep03-2015> <08:26:00>    4  ErrMat   0.06027839  MaxEl  0.00967416
 <Sep03-2015> <08:26:11>    5  ErrMat   0.02878216  MaxEl -0.00614442
 <Sep03-2015> <08:26:21>    6  ErrMat   0.01161218  MaxEl -0.00204673
 <Sep03-2015> <08:26:32>    7  ErrMat   0.00287180  MaxEl  0.00056014
 <Sep03-2015> <08:26:42>    8  ErrMat   0.00091604  MaxEl -0.00015934
 <Sep03-2015> <08:26:53>    9  ErrMat   0.00028274  MaxEl  0.00007053
 <Sep03-2015> <08:27:04>   10  ErrMat   0.00009449  MaxEl  0.00002074
 <Sep03-2015> <08:27:14>   11  ErrMat   0.00003293  MaxEl -0.00000627
 <Sep03-2015> <08:27:25>   12  ErrMat   0.00003019  MaxEl -0.00000625
 <Sep03-2015> <08:27:35>   13  ErrMat   0.00000711  MaxEl  0.00000120
 <Sep03-2015> <08:27:46>   14  ErrMat   0.00000125  MaxEl  0.00000027
 <Sep03-2015> <08:27:46>  SCF converged
 <Sep03-2015> <08:27:57>   15  ErrMat   0.00000055  MaxEl -0.00000016
 <Sep03-2015> <08:27:58>  >>>> TOTEN
 <Sep03-2015> <08:28:21>  >>>> POPAN
 <Sep03-2015> <08:28:21>  >>>> DEBYE
 <Sep03-2015> <08:28:21>  >>>> AMETS
 <Sep03-2015> <08:28:22>  >>>> ENGRAD
 <Sep03-2015> <08:29:28>  current energy                               -4.87983537 Hartree
 <Sep03-2015> <08:29:28>  energy change                       0.00024878     0.00010000    F
 <Sep03-2015> <08:29:28>  constrained gradient max            0.00058189     0.00100000    T
 <Sep03-2015> <08:29:28>  constrained gradient rms            0.00013099     0.00066667    T
 <Sep03-2015> <08:29:28>  gradient max                        0.00058189
 <Sep03-2015> <08:29:28>  gradient rms                        0.00013099
 <Sep03-2015> <08:29:28>  cart. step max                      0.01938937     0.01000000    F
 <Sep03-2015> <08:29:28>  cart. step rms                      0.00548825     0.00666667    T
  Coordinates in Geometry Cycle 9
    Atom         X           Y           Z   (Angstrom)
    1.Ag       12.298722   10.095471    9.621776
    2.Ag       11.827071    9.649074   12.801404
    3.S        13.663589    8.036958   13.772865
    4.S        11.764887   11.637353   14.370786
    5.S        14.089377    9.003030    8.116415
    6.S        12.628904   12.638979    9.380835
    7.S        10.492869    9.007874   10.857620
    8.C        12.376203   13.045333    7.602113
    9.C        14.749474    7.498729    8.950542
   10.C        11.007084   13.060679   13.480190
   11.C        10.730395    7.176465   10.640943
   12.C        13.357491    7.854747   15.581294
   13.H        11.297025   12.980822    7.429992
   14.H        12.902472   12.331833    6.963040
   15.H        12.723035   14.066985    7.423640
   16.H        14.940752    7.692795   10.008996
   17.H        15.662563    7.183002    8.437598
   18.H        13.978019    6.730003    8.839364
   19.H         9.938393   12.834710   13.409942
   20.H        11.436683   13.163106   12.479994
   21.H        11.159859   13.968088   14.071902
   22.H        10.051400    6.660416   11.329230
   23.H        11.761572    6.882110   10.854682
   24.H        10.474879    6.912003    9.608910
   25.H        13.121863    8.821179   16.034347
   26.H        14.238121    7.404034   16.048302
   27.H        12.500951    7.178931   15.674725
   28.H        14.673703    8.941662   13.865896
   29.H        13.057185   12.048015   14.274116
   30.H        15.143275    9.816175    8.389879
   31.H        13.986747   12.687416    9.371678
 <Sep03-2015> <08:29:28>  >>>> CORORT
 <Sep03-2015> <08:29:28>  >>>> FITINT
 <Sep03-2015> <08:29:31>  >>>> CLSMAT
 <Sep03-2015> <08:29:31>  >>>> ORTHON
 <Sep03-2015> <08:29:31>  >>>> GENPT
 <Sep03-2015> <08:29:31>  Acc.Num.Int.=   6.000
 <Sep03-2015> <08:29:31>  Reusing previous cell geometry for gradient smoothing.
 <Sep03-2015> <08:29:32>  Block Length= 128
 <Sep03-2015> <08:29:33>  >>>> PTBAS
 <Sep03-2015> <08:29:52>  >>>> SURPTS
 <Sep03-2015> <08:29:52>  combining surface points...
 <Sep03-2015> <08:29:52>  combining surface points...
 <Sep03-2015> <08:29:52>  combining surface points...
 <Sep03-2015> <08:29:52>  >>>> CYCLE
 <Sep03-2015> <08:29:59>    1
 <Sep03-2015> <08:30:10>    2  ErrMat   0.15997685  MaxEl  0.03464833
 <Sep03-2015> <08:30:21>    3  ErrMat   0.08503734  MaxEl -0.01559483
 <Sep03-2015> <08:30:31>    4  ErrMat   0.05981507  MaxEl  0.00970200
 <Sep03-2015> <08:30:42>    5  ErrMat   0.02856416  MaxEl -0.00611172
 <Sep03-2015> <08:30:52>    6  ErrMat   0.01155753  MaxEl -0.00204707
 <Sep03-2015> <08:31:03>    7  ErrMat   0.00288055  MaxEl  0.00057069
 <Sep03-2015> <08:31:14>    8  ErrMat   0.00091954  MaxEl -0.00015861
 <Sep03-2015> <08:31:24>    9  ErrMat   0.00029714  MaxEl  0.00007017
 <Sep03-2015> <08:31:35>   10  ErrMat   0.00008796  MaxEl  0.00001664
 <Sep03-2015> <08:31:45>   11  ErrMat   0.00005567  MaxEl  0.00001410
 <Sep03-2015> <08:31:56>   12  ErrMat   0.00003039  MaxEl -0.00000972
 <Sep03-2015> <08:32:06>   13  ErrMat   0.00001011  MaxEl -0.00000321
 <Sep03-2015> <08:32:17>   14  ErrMat   0.00000316  MaxEl  0.00000059
 <Sep03-2015> <08:32:17>  SCF converged
 <Sep03-2015> <08:32:27>   15  ErrMat   0.00000164  MaxEl -0.00000066
 <Sep03-2015> <08:32:28>  >>>> TOTEN
 <Sep03-2015> <08:32:52>  >>>> POPAN
 <Sep03-2015> <08:32:52>  >>>> DEBYE
 <Sep03-2015> <08:32:52>  >>>> AMETS
 <Sep03-2015> <08:32:52>  >>>> ENGRAD
 <Sep03-2015> <08:33:58>  current energy                               -4.87984838 Hartree
 <Sep03-2015> <08:33:58>  energy change                      -0.00001300     0.00010000    T
 <Sep03-2015> <08:33:58>  constrained gradient max            0.00058786     0.00100000    T
 <Sep03-2015> <08:33:58>  constrained gradient rms            0.00013112     0.00066667    T
 <Sep03-2015> <08:33:58>  gradient max                        0.00058786
 <Sep03-2015> <08:33:58>  gradient rms                        0.00013112
 <Sep03-2015> <08:33:58>  cart. step max                      0.01037624     0.01000000    F
 <Sep03-2015> <08:33:58>  cart. step rms                      0.00322225     0.00666667    T
  Coordinates in Geometry Cycle 10
    Atom         X           Y           Z   (Angstrom)
    1.Ag       12.297840   10.095635    9.621767
    2.Ag       11.827046    9.648646   12.801414
    3.S        13.662216    8.034434   13.771967
    4.S        11.767759   11.637101   14.370703
    5.S        14.090281    9.004130    8.117879
    6.S        12.624976   12.639346    9.379250
    7.S        10.492041    9.008207   10.857925
    8.C        12.379822   13.042889    7.598532
    9.C        14.753941    7.503818    8.956756
   10.C        11.011331   13.061267   13.480240
   11.C        10.729641    7.176933   10.640543
   12.C        13.356954    7.854694   15.580605
   13.H        11.301652   12.975809    7.421170
   14.H        12.910478   12.329685    6.962732
   15.H        12.724971   14.065268    7.419984
   16.H        14.945987    7.702404   10.014235
   17.H        15.667170    7.187502    8.444220
   18.H        13.983847    6.733193    8.849740
   19.H         9.942313   12.836729   13.410531
   20.H        11.440666   13.163096   12.479902
   21.H        11.165554   13.968509   14.071898
   22.H        10.051046    6.660801   11.329125
   23.H        11.760971    6.882693   10.853683
   24.H        10.473689    6.912616    9.608582
   25.H        13.123508    8.822129   16.032646
   26.H        14.237331    7.403093   16.047134
   27.H        12.499152    7.180806   15.675439
   28.H        14.673659    8.937722   13.863417
   29.H        13.060514   12.046046   14.273532
   30.H        15.142602    9.820432    8.388347
   31.H        13.982871   12.690340    9.376130
 <Sep03-2015> <08:33:59>  >>>> CORORT
 <Sep03-2015> <08:33:59>  >>>> FITINT
 <Sep03-2015> <08:34:02>  >>>> CLSMAT
 <Sep03-2015> <08:34:02>  >>>> ORTHON
 <Sep03-2015> <08:34:02>  >>>> GENPT
 <Sep03-2015> <08:34:02>  Acc.Num.Int.=   6.000
 <Sep03-2015> <08:34:02>  Reusing previous cell geometry for gradient smoothing.
 <Sep03-2015> <08:34:03>  Block Length= 128
 <Sep03-2015> <08:34:04>  >>>> PTBAS
 <Sep03-2015> <08:34:22>  >>>> SURPTS
 <Sep03-2015> <08:34:22>  combining surface points...
 <Sep03-2015> <08:34:22>  combining surface points...
 <Sep03-2015> <08:34:22>  combining surface points...
 <Sep03-2015> <08:34:22>  >>>> CYCLE
 <Sep03-2015> <08:34:30>    1
 <Sep03-2015> <08:34:41>    2  ErrMat   0.15954023  MaxEl  0.03472345
 <Sep03-2015> <08:34:52>    3  ErrMat   0.08481216  MaxEl -0.01549568
 <Sep03-2015> <08:35:02>    4  ErrMat   0.05962152  MaxEl  0.00980219
 <Sep03-2015> <08:35:13>    5  ErrMat   0.02865375  MaxEl -0.00618092
 <Sep03-2015> <08:35:23>    6  ErrMat   0.01194547  MaxEl -0.00204099
 <Sep03-2015> <08:35:34>    7  ErrMat   0.00310386  MaxEl  0.00089072
 <Sep03-2015> <08:35:45>    8  ErrMat   0.00126281  MaxEl  0.00045833
 <Sep03-2015> <08:35:55>    9  ErrMat   0.00066318  MaxEl  0.00027629
 <Sep03-2015> <08:36:06>   10  ErrMat   0.00045088  MaxEl  0.00007638
 <Sep03-2015> <08:36:16>   11  ErrMat   0.00010871  MaxEl  0.00002776
 <Sep03-2015> <08:36:27>   12  ErrMat   0.00006662  MaxEl -0.00001323
 <Sep03-2015> <08:36:37>   13  ErrMat   0.00002412  MaxEl  0.00000490
 <Sep03-2015> <08:36:48>   14  ErrMat   0.00000902  MaxEl  0.00000398
 <Sep03-2015> <08:36:58>   15  ErrMat   0.00000440  MaxEl -0.00000202
 <Sep03-2015> <08:37:08>   16  ErrMat   0.00000142  MaxEl  0.00000069
 <Sep03-2015> <08:37:09>  SCF converged
 <Sep03-2015> <08:37:19>   17  ErrMat   0.00000036  MaxEl -0.00000006
 <Sep03-2015> <08:37:20>  >>>> TOTEN
 <Sep03-2015> <08:37:43>  >>>> POPAN
 <Sep03-2015> <08:37:43>  >>>> DEBYE
 <Sep03-2015> <08:37:44>  >>>> AMETS
 <Sep03-2015> <08:37:44>  >>>> ENGRAD
 <Sep03-2015> <08:38:50>  current energy                               -4.87980927 Hartree
 <Sep03-2015> <08:38:50>  energy change                       0.00003910     0.00010000    T
 <Sep03-2015> <08:38:50>  constrained gradient max            0.00033888     0.00100000    T
 <Sep03-2015> <08:38:50>  constrained gradient rms            0.00007758     0.00066667    T
 <Sep03-2015> <08:38:50>  gradient max                        0.00033888
 <Sep03-2015> <08:38:50>  gradient rms                        0.00007758
 <Sep03-2015> <08:38:50>  cart. step max                      0.00634397     0.01000000    T
 <Sep03-2015> <08:38:50>  cart. step rms                      0.00201918     0.00666667    T
 <Sep03-2015> <08:38:50>  GEOMETRY CONVERGED
 <Sep03-2015> <08:38:50>  Calculating Energy Terms for Final Geometry
  Coordinates in Geometry Cycle 10
    Atom         X           Y           Z   (Angstrom)
    1.Ag       12.297840   10.095635    9.621767
    2.Ag       11.827046    9.648646   12.801414
    3.S        13.662216    8.034434   13.771967
    4.S        11.767759   11.637101   14.370703
    5.S        14.090281    9.004130    8.117879
    6.S        12.624976   12.639346    9.379250
    7.S        10.492041    9.008207   10.857925
    8.C        12.379822   13.042889    7.598532
    9.C        14.753941    7.503818    8.956756
   10.C        11.011331   13.061267   13.480240
   11.C        10.729641    7.176933   10.640543
   12.C        13.356954    7.854694   15.580605
   13.H        11.301652   12.975809    7.421170
   14.H        12.910478   12.329685    6.962732
   15.H        12.724971   14.065268    7.419984
   16.H        14.945987    7.702404   10.014235
   17.H        15.667170    7.187502    8.444220
   18.H        13.983847    6.733193    8.849740
   19.H         9.942313   12.836729   13.410531
   20.H        11.440666   13.163096   12.479902
   21.H        11.165554   13.968509   14.071898
   22.H        10.051046    6.660801   11.329125
   23.H        11.760971    6.882693   10.853683
   24.H        10.473689    6.912616    9.608582
   25.H        13.123508    8.822129   16.032646
   26.H        14.237331    7.403093   16.047134
   27.H        12.499152    7.180806   15.675439
   28.H        14.673659    8.937722   13.863417
   29.H        13.060514   12.046046   14.273532
   30.H        15.142602    9.820432    8.388347
   31.H        13.982871   12.690340    9.376130
 <Sep03-2015> <08:38:51>  >>>> CORORT
 <Sep03-2015> <08:38:51>  >>>> FITINT
 <Sep03-2015> <08:38:54>  >>>> CLSMAT
 <Sep03-2015> <08:38:54>  >>>> ORTHON
 <Sep03-2015> <08:38:54>  >>>> GENPT
 <Sep03-2015> <08:38:54>  Acc.Num.Int.=   6.000
 <Sep03-2015> <08:38:54>  Reusing previous cell geometry for gradient smoothing.
 <Sep03-2015> <08:38:55>  Block Length= 128
 <Sep03-2015> <08:38:56>  >>>> PTBAS
 <Sep03-2015> <08:39:14>  >>>> SURPTS
 <Sep03-2015> <08:39:14>  combining surface points...
 <Sep03-2015> <08:39:14>  combining surface points...
 <Sep03-2015> <08:39:14>  combining surface points...
 <Sep03-2015> <08:39:14>  >>>> CYCLE
 <Sep03-2015> <08:39:22>    1
 <Sep03-2015> <08:39:33>    2  ErrMat   0.16003137  MaxEl  0.03475840
 <Sep03-2015> <08:39:44>    3  ErrMat   0.08506165  MaxEl -0.01554447
 <Sep03-2015> <08:39:54>    4  ErrMat   0.05997200  MaxEl  0.00985522
 <Sep03-2015> <08:40:05>    5  ErrMat   0.02864381  MaxEl -0.00618060
 <Sep03-2015> <08:40:15>    6  ErrMat   0.01157189  MaxEl -0.00204752
 <Sep03-2015> <08:40:26>    7  ErrMat   0.00286914  MaxEl  0.00055483
 <Sep03-2015> <08:40:37>    8  ErrMat   0.00092665  MaxEl -0.00015461
 <Sep03-2015> <08:40:47>    9  ErrMat   0.00043226  MaxEl -0.00007662
 <Sep03-2015> <08:40:58>   10  ErrMat   0.00024011  MaxEl  0.00007023
 <Sep03-2015> <08:41:08>   11  ErrMat   0.00015537  MaxEl  0.00004222
 <Sep03-2015> <08:41:19>   12  ErrMat   0.00010023  MaxEl  0.00002700
 <Sep03-2015> <08:41:29>   13  ErrMat   0.00007604  MaxEl  0.00001533
 <Sep03-2015> <08:41:40>   14  ErrMat   0.00002494  MaxEl -0.00000783
 <Sep03-2015> <08:41:51>   15  ErrMat   0.00001508  MaxEl -0.00000413
 <Sep03-2015> <08:42:01>   16  ErrMat   0.00000842  MaxEl -0.00000216
 <Sep03-2015> <08:42:12>   17  ErrMat   0.00000296  MaxEl -0.00000104
 <Sep03-2015> <08:42:22>   18  ErrMat   0.00000182  MaxEl  0.00000047
 <Sep03-2015> <08:42:33>   19  ErrMat   0.00000080  MaxEl -0.00000022
 <Sep03-2015> <08:42:44>   20  ErrMat   0.00000053  MaxEl  0.00000014
 <Sep03-2015> <08:42:54>   21  ErrMat   0.00000009  MaxEl -0.00000002
 <Sep03-2015> <08:43:05>   22  ErrMat   0.00000003  MaxEl -0.00000001
 <Sep03-2015> <08:43:16>   23  ErrMat   0.00000003  MaxEl -0.00000001
 <Sep03-2015> <08:43:16>  SCF converged
 <Sep03-2015> <08:43:26>   24  ErrMat   0.00000001  MaxEl  0.00000000
 <Sep03-2015> <08:43:33>  >>>> TOTEN
 <Sep03-2015> <08:44:08>  >>>> POPAN
 <Sep03-2015> <08:44:08>  >>>> DEBYE
 <Sep03-2015> <08:44:08>  >>>> AMETS
 <Sep03-2015> <08:44:09>  >>>> POPUL
 <Sep03-2015> <08:44:09>   Bond Energy          -4.87980950 a.u.
 <Sep03-2015> <08:44:09>   Bond Energy        -132.78637271 eV
 <Sep03-2015> <08:44:09>   Bond Energy       -3062.13       kcal/mol
 <Sep03-2015> <08:44:09>  NORMAL TERMINATION
 <Sep03-2015> <08:44:09>  END
