
 *******************************************************************************
 *                                                                             *
 *  -------------------------------------                                      *
 *   Amsterdam Density Functional  (ADF)         2012.01   January 26, 2012    *
 *  -------------------------------------                                      *
 *                                               Build 201201262206            *
 *                                                                             *
 *                                                                             *
 *                            =====================                            *
 *                            |                   |                            *
 *                            |     D I R A C     |                            *
 *                            |                   |                            *
 *                            =====================                            *
 *                                                                             *
 *                                                                             *
 *   Online information and documentation:  http://www.scm.com                 *
 *   E-mail:  support@scm.com   info@scm.com                                   *
 *                                                                             *
 *   Scientific publications using ADF results must be properly referenced     *
 *   See the User Manuals (or the web site) for recommended citations          *
 *   The terms and conditions of the End User License Agreement apply to       *
 *   the use of ADF, http://www.scm.com/Sales/LicAgreement.html                *
 *                                                                             *
 *****************************  pentium64_linux  *******************************
 
 DIRAC 2012.01  RunTime: Sep03-2015 15:20:05  Nodes: 1  Procs: 1

 Temporary files are created in /tmp/2104836.1.killable.q/kid_0.Jixen2

1
 HYDROGEN ATOM RELATIVISTIC, Point Nuc, A and c from libtc   
 N J RN H ZN XION ANUC CLIGHT
 5000    1100.00000000197.36710137  1.00000000  0.00000000    1.007825  0.1370360E+03
  PH   PHI     EPS        DEL        DELRVR
  0.30  0.30     2500.00  0.00001000  0.00001000
 IDIRC  NC1  NDEBU NPRIN  IPUN IRCOR IWCOR
   1   300     0     0     0     0     0
   XALPHA      XLATTER      RNUC
  0.70000000  0.00000000  0.00000000 Point Charge
   XN   XL   XJ      XE          XZ      XDELL
  1.0  0.0  0.5      -1.000       1.000     0.00000
 ICORP=  0  NPCL=  0  DEMP=0.00  PEPS=0.000000
 R(1)=  0.1000000E-08 D=  0.1005080E+01 RNUC=  0.0000000E+00
 converged at cycle   32  DENSITY AVERAGING    0.2400
  MAXIMUM ERROR IN R.V(R) IS   0.79874357E-05
 Q,EY,EV,EZ,ESUM,ETOT,RHO  0.100000E+01 -0.266614E+00 -0.619969E+00 -0.910779E+00 -0.203940E+00 -0.415998E+00  0.337036E-17


 DIRAC CALCULATION
1                    HYDROGEN ATOM RELATIVISTIC, Point Nuc, A and c from libtc


 EXCHANGE COEFFICIENT=  0.7000000           TAIL CORRECTION=  0.           NUCLEAR RADIUS=  0.000E+00
0                       ORBITAL    N    L    J     ELECTRONS     EIGENVALUE                DELTA OF EIGENV.

                          1S1/2  1.0  0.0  0.5     1.000       -0.2039397E+00                 0.2720093E-06


                                        NUCLEAR CHARGE=    1.000000
                            INTEGRAL OF CHARGE DENSITY=    1.000000
                           SUM OF THE ORBITAL ENERGIES=     -0.2039
                                          TOTAL ENERGY=     -0.4160
                                        KINETIC ENERGY=      0.4160
                             NUCLEAR ATTRACTION ENERGY=     -0.9108
                             ELECTRON REPULSION ENERGY=      0.2787
                                       EXCHANGE ENERGY=     -0.2000

 *******************************************************************************

                             D I R A C   E X I T
 NORMAL TERMINATION



 =================
 Timing Statistics
 =================
  
 Total Used :                     CPU=        0.08      System=        0.05     Elapsed=        0.14

 Calls  Section                     ( Mean, Percentage )
 ---------------------------------------------------------------------------------------------------
     2  ><      ................      0.00    0.00             0.00    0.00             0.00    0.01
     1  EXIT PROCEDURE .........      0.08  100.00             0.05  100.00             0.14   99.99


 Currently Open Files (EXIT00)
 ====================

 Unit    Access Format  Status   Type       Ident (file)
 -------------------------------------------------------
   3      SEQ    FORM   TRANSP  NORMAL      LOGFILE
                                          ( logfile )


 Buffered I/O statistics
 =======================
 Memory available:                    268435456
 Number of records fitting in memory:     64527
 Input : 100.0% of                            0  *4k bytes
 Output: 100.0% of                            0  *4k bytes
 Records from serial files evicted:           0
                    others evicted:           0
 Hash table lookups:          0 with          0 conflicts (100.00%)
(INPUT FILE)
Create H   file=/homes/cmaikens/adf2012.01/atomicdata/ZORA/TZP/H
XC
GGA Becke Perdew
End
relativistic ZORA
Corepotentials t12.rel
End Input

 *******************************************************************************
 *                                                                             *
 *  -------------------------------------                                      *
 *   Amsterdam Density Functional  (ADF)         2012.01   January 26, 2012    *
 *  -------------------------------------                                      *
 *                                               Build 201201262307            *
 *                                                                             *
 *                                                                             *
 *                              =================                              *
 *                              |               |                              *
 *                              |     A D F     |                              *
 *                              |               |                              *
 *                              =================                              *
 *                                                                             *
 *                                                                             *
 *   Online information and documentation:  http://www.scm.com                 *
 *   E-mail:  support@scm.com   info@scm.com                                   *
 *                                                                             *
 *   Scientific publications using ADF results must be properly referenced     *
 *   See the User Manuals (or the web site) for recommended citations          *
 *   The terms and conditions of the End User License Agreement apply to       *
 *   the use of ADF, http://www.scm.com/Sales/LicAgreement.html                *
 *                                                                             *
 **********************  pentium64_linux / platform_mpi  ***********************
 
 ADF 2012.01  RunTime: Sep03-2015 15:20:05  Nodes: 1  Procs: 1

 Temporary files are created in /tmp/2104836.1.killable.q/kid_0.hRPuyS

 Hydrogen (TZP)



 ===========================
 A T T A C H E D   F I L E S
 ===========================
  
 CREATE - Data File:    /homes/cmaikens/adf2012.01/atomicdata/ZORA/TZP/H
                        Hydrogen (TZP)
 Core Potentials:
         file : t12.rel



 ===============================
 M O D E L   P A R A M E T E R S
 ===============================
  
 DENSITY FUNCTIONAL POTENTIAL (scf)
    LDA:                               VWN                                      
    Gradient Corrections:              Becke88 Perdew86                        == Not Default ==

 SPIN  (restricted / unrestr.)
    Molecule:                          Restricted                               

 OTHER ASPECTS
    Relativistic Corrections:          scalar (ZORA,SAPA)                       *** SPECIAL ***

    Nuclear Charge Density Model:      Point Charge Nuclei                                                                                                                                                                                     
    Core Treatment:                    Frozen Orbital(s)                        

    Electric Field:                    ---                                      

    Hyperfine or Zeeman Interaction:   ---                                      



 =====================================
 S Y M M E T R Y ,   E L E C T R O N S
 =====================================
  
 Symmetry: ATOM

 Irreducible Representations, including subspecies
 -------------------------------------------------
 S
 P:x  P:y  P:z
 D:z2  D:x2-y2  D:xy  D:xz  D:yz
 F:z3  F:z  F:xyz  F:z2x  F:z2y  F:x  F:y


 Configuration of Valence Electrons
 ==================================

          Occupation Numbers
          -------------------------------------------------
 S        1
 P        0
 D        0
 F        0
          -------------------------------------------------

 Total:   1

 Net Charge: 0 (Nuclei minus Electrons)

 Preset values for MO occupations will be applied through SCF cycle no. 1000000
 Thereafter, the program will assign electrons to MOs that are spatially
 similar to the occupied MOs in a "reference" cycle ("KeepOrbitals").
 The reference cycle is always the PREVIOUS cycle: it will evolve with
 the SCF procedure.



 ================================
 (Slater-type)  F U N C T I O N S  ***  (Basis and Fit)  ***
 ================================
  

 Atom Type    1  (H)
 ==============

 Valence Basis Sets:   4
 -----------------------
   1 S    0.690000
   1 S    0.920000
   1 S    1.580000
   2 P    1.250000

 Charge Fitting Sets (for the computation of the Coulomb Potential):  11
 -----------------------------------------------------------------------
   1 S    3.160000
   1 S    2.090000
   1 S    1.380000
   2 S    1.500000
   2 P    4.000000
   2 P    2.650000
   2 P    1.750000
   3 D    4.000000
   3 D    2.500000
   4 F    3.000000
   5 G    4.000000


 BAS: List of all Elementary Cartesian Basis Functions
 =====================================================

 The numbering in the list below (to the right of the function characteristics) is referred
 to in print-outs of MO eigenvectors and Mulliken populations in the BAS representation
 (as contrasted to the SFO representation).

 Notes:
 1. The functions are characterized by a polynomial prefactor (powers of x,y,z and r) and
    an exponential decay factor alpha.
 2. Since the basis sets are specific for an atom TYPE, the individual functions occur on
    all atoms of that type.
 3. The word 'Core' in the left margin signals that it is a Core Function (CF) : not a
    degree of freedom in the valence set, but only used to ensure orthogonalization of
    the other valence basis functions on the frozen Core Orbitals.


 (power of) X  Y  Z  R     Alpha  on Atom
            ==========     =====     ==========

 H                                    1
                                  ---------------------------------------------------------------------------
            0  0  0  0     0.690      1
            0  0  0  0     0.920      2
            0  0  0  0     1.580      3
            1  0  0  0     1.250      4
            0  1  0  0     1.250      5
            0  0  1  0     1.250      6

 Total number of charge fitting functions (nprimf)        50
 Total number of Cartesian basis functions (naos)          6
 Total number of Cartesian core functions  (ncos)          0



 BAS: List of all Elementary Cartesian Basis Functions
 =====================================================

 The numbering in the list below (to the right of the function characteristics) is referred
 to in print-outs of MO eigenvectors and Mulliken populations in the BAS representation
 (as contrasted to the SFO representation).

 Notes:
 1. The functions are characterized by a polynomial prefactor (powers of x,y,z and r) and
    an exponential decay factor alpha.
 2. Since the basis sets are specific for an atom TYPE, the individual functions occur on
    all atoms of that type.
 3. The word 'Core' in the left margin signals that it is a Core Function (CF) : not a
    degree of freedom in the valence set, but only used to ensure orthogonalization of
    the other valence basis functions on the frozen Core Orbitals.


 (power of) X  Y  Z  R     Alpha  on Atom
            ==========     =====     ==========

 H                                    1
                                  ---------------------------------------------------------------------------
            0  0  0  0     0.690      1
            0  0  0  0     0.920      2
            0  0  0  0     1.580      3
            1  0  0  0     1.250      4
            0  1  0  0     1.250      5
            0  0  1  0     1.250      6
1
 ***************************************************************************************************



                                              ***********************
                                              *  T E C H N I C A L  *
                                              ***********************
  



 =============================================================
 P A R A L L E L I Z A T I O N  and  V E C T O R I Z A T I O N
 =============================================================
  
 Nr of parallel processes:                                1
 Maximum vector length in NumInt loops:                 128



 ===============
 I O  vs.  C P U  ***  (store numerical data on disk or recalculate)  ***
 ===============
  
 Basis functions:   recalculate when needed
 Fit functions:     recalculate when needed

 IO buffersize (Mb):                                    256.000000



 =====================
 S C F   U P D A T E S
 =====================
  
 Max. nr. of cycles:                               100
 Convergence criterion:                              0.0000000100
   secondary criterion:                              0.0000000100

 Mix parameter (when DIIS does not apply):           0.2000000000
 Special mix parameter for the first cycle:          1.0000000000


 DIIS (Direct Inversion in Iteration Space)
    Replace damping when SCF Error is below:         0.5000000000
    Apply anyway after SCF cycle:
                                                     5
    (Max.) nr. of expansion vectors:                10

    Upperbound on expansion coefficients:            5.0000000000
    (when exceeded, IterationSpace is re-built)
    2nd Upperbound on coefficients:                 25.0000000000
    (when exceeded, simple damping will be used)
 Automatic ElectronSmearing (in case of problematic SCF convergence) disabled



 =================
 P R E C I S I O N  ***  (General: NumInt, NeglectFunctionTails, ...)  ***
 =================
  

 NumInt:           Target precision:                10.0000000000
 -------           Initial precision:               10.0000000000
                   Min. precision (optimization):   10.0000000000

 Neglect Functions:          Basis functions:        0.1000000000E-11
 ------------------          Fit functions:          0.1000000000E-11



 ===========================
 L I N E A R   S C A L I N G
 ===========================
  

 Cut-off radii density fit:                        0.1000000000E-13
 Overlap cut-off criterion AO matrix elements:     0.1000000000E-11
 Cut-offs for Coulomb potential and fitted density:0.1000000000E-13
 Cut-off criterion for Coulomb multipole terms:    0.1000000000E-13
 Progressive Convergence parameter:                 0.000000000    
1
 ***************************************************************************************************



                                            ***************************
                                            *  C O M P U T A T I O N  *
                                            ***************************
  

 Number of elements of the density matrix on this node (used, total):        21        21



 ====================================================
 Numerical Integration : Voronoi Polyhedra (Te Velde)  ***  (parameters, tests)  ***
 ====================================================
  
 General Accuracy Parameter :                         10.00

 Symmetry used in the points section:  ATOM  


 Summary of the Symmetry Unique Points:
 --------------------------------------
    Nr. of used Symmetry Operators                     1

    Points in the Atomic Spheres                      35
    Points in the Atomic Polyhedra                     0
    Points in the Outer Region                         0
    ----------------------------------------------------
    Total                                             35

    Sum of Weights                                 33854.777883

 Total nr. of points:         35
 Nr. of blocks:                1
 Block length:                35
 Nr. of dummy points:          0


 Test of Precision of the Numerical Integration Grid
 ===================================================

 Integral of the Total Core Density:                   0.00000000000000



 =====
 S C F
 =====
  

 CYCLE    1
 orbitals (Q,E):
 ---------------
 S :1...3            ( 1.00    -0.2497)  ( 0.00     0.0898)  ( 0.00     1.5086)
 P :1...1            ( 0.00     0.3944)

 CYCLE    2
 d-Pmat  mean:  0.67E-02
 imax=      2: -0.32E-01
 orbitals (Q,E):
 ---------------
 S :1...2            ( 1.00    -0.2425)  ( 0.00     0.0938)
 P :1...1            ( 0.00     0.4004)

 CYCLE    3
 d-Pmat  mean:  0.92E-03
 imax=      2:  0.43E-02
 orbitals (Q,E):
 ---------------
 S :1...2            ( 1.00    -0.2436)  ( 0.00     0.0931)
 P :1...1            ( 0.00     0.3994)

 CYCLE    4
 d-Pmat  mean:  0.23E-05
 imax=      2:  0.70E-05
 orbitals (Q,E):
 ---------------
 S :1...2            ( 1.00    -0.2436)  ( 0.00     0.0931)
 P :1...1            ( 0.00     0.3994)

 CYCLE    5
 d-Pmat  mean:  0.33E-07
 imax=      2:  0.16E-06
 orbitals (Q,E):
 ---------------
 S :1...2            ( 1.00    -0.2436)  ( 0.00     0.0931)
 P :1...1            ( 0.00     0.3994)

 SCF CONVERGED

 CYCLE    6
1
 ***************************************************************************************************



                                                *******************
                                                *  R E S U L T S  *
                                                *******************
  
 *** Setting up for NEW gradients in focky
 *** Using FIT density in focky
 XCFun disabled
 XCFun disabled
 XCFun disabled

 Scaled ZORA Orbital Energies, per Irrep and Spin:
 =================================================
                        Occup              E (au)              E (eV)       Diff (eV) with prev. cycle
                        -----      --------------------        ------       --------------------------
 S
               1        1.000     -0.24363084608098E+00        -6.630               7.44E-12
               2        0.000      0.93092450943701E-01         2.533
               3        0.000      0.15150131697268E+01        41.226
 P
               1        0.000      0.39943374979256E+00        10.869


 Partially Occupied:
               1 S                -0.24363084608098E+00
  
 LUMO :        2 S                 0.93092450943701E-01
  


 Orbital Energies, all Irreps
 ========================================

 Irrep        no.  (spin)   Occup              E (au)                E (eV)
 ---------------------------------------------------------------------------
 S             1             1.00       -0.24363084608098E+00        -6.6295
 S             2             0.00        0.93092450943701E-01         2.5332
 P             1             0.00        0.39943374979256E+00        10.8691
 S             3             0.00        0.15150131697268E+01        41.2256


 Scaled ZORA Orbital Energies of the Core Orbitals:
 ==================================================

 (Note that the atoms are grouped by atomtype, see the labels, and may hence NOT be in input order)

 AtomType  Orbital  Atom                   E (au)                        E (eV)
 --------  -------  ----           --------------------        ----------------



 =======================================
 M U L L I K E N   P O P U L A T I O N S
 =======================================
  
 The survey below gives for each atom:
 a) the total charge (Z minus electrons)
 b) the net spin polarization (nr of electrons spin-A minus spin-B)
 c) for each spin the atomic electron valence density (integrated) per L-value.

 Atom              Charge    Spin density          S         P         D         F
 ----              ------    ------------       ------    ------    ------    ------
 1 H               0.0000                       1.0000    0.0000    0.0000    0.0000

 Populations of individual BAS functions
 ----------------------------------------
 1 H            0.1849  0.7118  0.1033  0.0000  0.0000  0.0000

 Gross Charges per Atom (Z minus electrons)
 ==========================================
             0.0000
 Net Total:  0.00000000


 Atom-Atom Population Matrix (off-diagonal elements not doubled)
 ===============================================================

     1 :     1.0000



 =============
 Dipole Moment  ***  (Debye)  ***
 =============
  
 Vector   :         0.00000000      0.00000000      0.00000000
 Magnitude:         0.00000000

 This molecular dipole moment is calculated with analytic integration



 =========================================
 Quadrupole Moment (Buckingham convention)  ***  (a.u.)  ***
 =========================================
  
      quad-xx        quad-xy        quad-xz        quad-yy        quad-yz        quad-zz
      0.00000000     0.00000000     0.00000000     0.00000000     0.00000000     0.00000000

 This molecular quadrupole moment is calculated with analytic integration



 ===============================================================================
 Electrostatic potential at the Nuclei due to valence electrons and other nuclei
 ===============================================================================
  
         Atom                  Potential
         ----                  ---------
     1)   H                   0.94545402
 
 
 ========================
 No memory problems found
 ========================
 
 Maximum number of active allocate calls:         308
 
 *******************************************************************************

                             A D F   E X I T
 NORMAL TERMINATION



 =================
 Timing Statistics
 =================
  
 Total Used :                     CPU=        0.11      System=        0.09     Elapsed=        2.04

 Calls  Section                     ( Mean, Percentage )
 ---------------------------------------------------------------------------------------------------
     3  ><      ................      0.00    0.00             0.00    0.00             0.00    0.24
     1  INIT    ................      0.00    0.00             0.01   11.11             0.04    2.04
     1  GEOMET  ................      0.00    0.00             0.07   77.78             0.10    4.86
     1  INPUTA  ................      0.00    0.00             0.00    0.00             0.00    0.08
     1  MAINSY  ................      0.00    0.00             0.00    0.00             0.02    0.77
     1  SYMFIT  ................      0.00    0.00             0.01   11.11             0.00    0.01
     1  CORORT  ................      0.00    0.00             0.00    0.00             0.00    0.01
     1  SYMORB  ................      0.00    0.00             0.00    0.00             0.00    0.02
     1  FITINT  ................      0.00    0.00             0.00    0.00             0.00    0.14
     1  CLSMAT  ................      0.00    0.00             0.00    0.00             0.00    0.01
     1  ORTHON  ................      0.00    0.00             0.00    0.00             0.00    0.21
     1  ETALOW  ................      0.00    0.00             0.00    0.00             0.00    0.02
     1  GENPT   ................      0.01    9.09             0.00    0.00             0.00    0.23
     1  PTBAS   ................      0.00    0.00             0.00    0.00             0.04    1.75
     6  FOCKY   ................      0.01   45.45             0.00    0.00             0.30   87.90
     6  FOCKTR  ................      0.00    0.00             0.00    0.00             0.00    0.06
     6  FOCKNM  ................      0.00    0.00             0.00    0.00             0.00    0.01
     6  SDIIS   ................      0.00    0.00             0.00    0.00             0.00    0.10
     6  EMERGE  ................      0.00    9.09             0.00    0.00             0.00    0.41
     1  COREPS  ................      0.02   18.18             0.00    0.00             0.00    0.11
     1  POPAN   ................      0.00    0.00             0.00    0.00             0.00    0.07
     1  DEBYE   ................      0.00    0.00             0.00    0.00             0.00    0.01
     1  QMPOT   ................      0.00    0.00             0.00    0.00             0.00    0.07
     1  EXIT PROCEDURE .........      0.02   18.18             0.00    0.00             0.02    0.86


 Currently Open Files (EXIT00)
 ====================

 Unit    Access Format  Status   Type       Ident (file)
 -------------------------------------------------------
   3      SEQ    FORM   TRANSP  NORMAL      LOGFILE
                                          ( logfile )


 Buffered I/O statistics
 =======================
 Memory available:                    268435456
 Number of records fitting in memory:     64527
 Input :   2.1% of                         2027  *4k bytes
 Output:  12.8% of                         1349  *4k bytes
 Records from serial files evicted:           0
                    others evicted:           0
 Hash table lookups:       9130 with          0 conflicts (  0.00%)

 ***************************************************************************************************
 (LOGFILE)
 <Sep03-2015> <15:20:05>  DIRAC 2012.01  RunTime: Sep03-2015 15:20:05  Nodes: 1  Procs: 1
 <Sep03-2015> <15:20:05>  NORMAL TERMINATION
 <Sep03-2015> <15:20:05>  END
 <Sep03-2015> <15:20:05>  ADF 2012.01  RunTime: Sep03-2015 15:20:05  Nodes: 1  Procs: 1
 <Sep03-2015> <15:20:05>  Hydrogen (TZP)
 <Sep03-2015> <15:20:05>  RunType   : CREATE
 <Sep03-2015> <15:20:06>  Net Charge: 0 (Nuclei minus Electrons)
 <Sep03-2015> <15:20:06>  Symmetry  : ATOM
 <Sep03-2015> <15:20:06>  >>>> CORORT
 <Sep03-2015> <15:20:06>  >>>> FITINT
 <Sep03-2015> <15:20:06>  >>>> CLSMAT
 <Sep03-2015> <15:20:06>  >>>> ORTHON
 <Sep03-2015> <15:20:06>  >>>> GENPT
 <Sep03-2015> <15:20:06>  Acc.Num.Int.=  10.000
 <Sep03-2015> <15:20:06>  Block Length=  35
 <Sep03-2015> <15:20:06>  >>>> PTBAS
 <Sep03-2015> <15:20:06>  >>>> CYCLE
 <Sep03-2015> <15:20:07>    1
 <Sep03-2015> <15:20:07>    2  ErrMat   0.00258453  MaxEl -0.00253172
 <Sep03-2015> <15:20:07>    3  ErrMat   0.00050241  MaxEl  0.00048214
 <Sep03-2015> <15:20:07>    4  ErrMat   0.00000638  MaxEl  0.00000533
 <Sep03-2015> <15:20:07>    5  ErrMat   0.00000001  MaxEl -0.00000001
 <Sep03-2015> <15:20:07>  SCF converged
 <Sep03-2015> <15:20:07>    6  ErrMat   0.00000000  MaxEl  0.00000000
 <Sep03-2015> <15:20:07>   Solutions with partially occupied orbitals may not be
 <Sep03-2015> <15:20:07>   lowest in energy. You might consider lowering the
 <Sep03-2015> <15:20:07>   symmetry in the input and explicitly specifying integer
 <Sep03-2015> <15:20:07>   occupations. In that case always check that you obtain
 <Sep03-2015> <15:20:07>   an aufbau solution.
 <Sep03-2015> <15:20:07>  >>>> POPAN
 <Sep03-2015> <15:20:07>  >>>> DEBYE
 <Sep03-2015> <15:20:07>  NORMAL TERMINATION
 <Sep03-2015> <15:20:07>  END

 *******************************************************************************
 *                                                                             *
 *  -------------------------------------                                      *
 *   Amsterdam Density Functional  (ADF)         2012.01   January 26, 2012    *
 *  -------------------------------------                                      *
 *                                               Build 201201262206            *
 *                                                                             *
 *                                                                             *
 *                            =====================                            *
 *                            |                   |                            *
 *                            |     D I R A C     |                            *
 *                            |                   |                            *
 *                            =====================                            *
 *                                                                             *
 *                                                                             *
 *   Online information and documentation:  http://www.scm.com                 *
 *   E-mail:  support@scm.com   info@scm.com                                   *
 *                                                                             *
 *   Scientific publications using ADF results must be properly referenced     *
 *   See the User Manuals (or the web site) for recommended citations          *
 *   The terms and conditions of the End User License Agreement apply to       *
 *   the use of ADF, http://www.scm.com/Sales/LicAgreement.html                *
 *                                                                             *
 *****************************  pentium64_linux  *******************************
 
 DIRAC 2012.01  RunTime: Sep03-2015 15:20:08  Nodes: 1  Procs: 1

 Temporary files are created in /tmp/2104836.1.killable.q/kid_0.2ecZnd

1
 SILVER ATOM 3d CORE RELATIVISTIC, Point Nuc, A and c from li
 N J RN H ZN XION ANUC CLIGHT
 5000   15100.00000000197.36710137 47.00000000  0.00000000  106.905093  0.1370360E+03
  PH   PHI     EPS        DEL        DELRVR
  0.30  0.30     2500.00  0.00001000  0.00001000
 IDIRC  NC1  NDEBU NPRIN  IPUN IRCOR IWCOR
   1   300     0     0     0     0     9
   XALPHA      XLATTER      RNUC
  0.70000000  0.00000000  0.00000000 Point Charge
   XN   XL   XJ      XE          XZ      XDELL
  1.0  0.0  0.5   -1500.000       2.000     0.00000
  2.0  0.0  0.5    -325.000       2.000     0.00000
  2.0  1.0  0.5    -325.000       2.000     0.00000
  2.0  1.0  1.5    -325.000       4.000     0.00000
  3.0  0.0  0.5     -70.000       2.000     0.00000
  3.0  1.0  0.5     -70.000       2.000     0.00000
  3.0  1.0  1.5     -70.000       4.000     0.00000
  3.0  2.0  1.5     -60.000       4.000     0.00000
  3.0  2.0  2.5     -60.000       6.000     0.00000
  4.0  0.0  0.5     -10.000       2.000     0.00000
  4.0  1.0  0.5     -10.000       2.000     0.00000
  4.0  1.0  1.5     -10.000       4.000     0.00000
  4.0  2.0  1.5      -1.000       4.000     0.00000
  4.0  2.0  2.5      -1.000       6.000     0.00000
  5.0  0.0  0.5      -0.500       1.000     0.00000
 ICORP=  0  NPCL=  0  DEMP=0.00  PEPS=0.000000
 R(1)=  0.1000000E-08 D=  0.1005080E+01 RNUC=  0.0000000E+00
 converged at cycle   37  DENSITY AVERAGING    0.1536
  MAXIMUM ERROR IN R.V(R) IS   0.73266205E-05
 Q,EY,EV,EZ,ESUM,ETOT,RHO  0.470000E+02 -0.196167E+03 -0.876390E+04 -0.128962E+05 -0.319969E+04 -0.531488E+04  0.734901E-11


 DIRAC CALCULATION
1                    SILVER ATOM 3d CORE RELATIVISTIC, Point Nuc, A and c from libtc


 EXCHANGE COEFFICIENT=  0.7000000           TAIL CORRECTION=  0.           NUCLEAR RADIUS=  0.000E+00
0                       ORBITAL    N    L    J     ELECTRONS     EIGENVALUE                DELTA OF EIGENV.

                          1S1/2  1.0  0.0  0.5     2.000       -0.9298445E+03                 0.2273091E-04
                          2S1/2  2.0  0.0  0.5     2.000       -0.1369628E+03                 0.3639498E-04
                          2P1/2  2.0  1.0  0.5     2.000       -0.1273849E+03                 0.3693015E-04
                          2P3/2  2.0  1.0  1.5     4.000       -0.1209397E+03                 0.3702741E-04
                          3S1/2  3.0  0.0  0.5     2.000       -0.2508734E+02                 0.1716513E-04
                          3P1/2  3.0  1.0  0.5     2.000       -0.2126622E+02                 0.1799299E-04
                          3P3/2  3.0  1.0  1.5     4.000       -0.2012758E+02                 0.1718269E-04
                          3D3/2  3.0  2.0  1.5     4.000       -0.1333155E+02                 0.2053383E-04
                          3D5/2  3.0  2.0  2.5     6.000       -0.1310170E+02                 0.2025648E-04
                          4S1/2  4.0  0.0  0.5     2.000       -0.3467319E+01                 0.6825765E-06
                          4P1/2  4.0  1.0  0.5     2.000       -0.2259901E+01                 0.4193829E-06
                          4P3/2  4.0  1.0  1.5     4.000       -0.2069785E+01                 0.2705207E-06
                          4D3/2  4.0  2.0  1.5     4.000       -0.2640772E+00                 0.3034642E-06
                          4D5/2  4.0  2.0  2.5     6.000       -0.2433402E+00                 0.3285318E-06
                          5S1/2  5.0  0.0  0.5     1.000       -0.1450750E+00                 0.2931479E-06


                                        NUCLEAR CHARGE=   47.000000
                            INTEGRAL OF CHARGE DENSITY=   47.000000
                           SUM OF THE ORBITAL ENERGIES=  -3199.6921
                                          TOTAL ENERGY=  -5314.8812
                                        KINETIC ENERGY=   5564.2055
                             NUCLEAR ATTRACTION ENERGY= -12896.1922
                             ELECTRON REPULSION ENERGY=   2164.2310
                                       EXCHANGE ENERGY=   -147.1255

 *******************************************************************************

                             D I R A C   E X I T
 NORMAL TERMINATION



 =================
 Timing Statistics
 =================
  
 Total Used :                     CPU=        0.40      System=        0.07     Elapsed=        0.47

 Calls  Section                     ( Mean, Percentage )
 ---------------------------------------------------------------------------------------------------
     2  ><      ................      0.00    0.00             0.00    0.00             0.00    0.00
     1  EXIT PROCEDURE .........      0.40  100.00             0.07  100.00             0.47  100.00


 Currently Open Files (EXIT00)
 ====================

 Unit    Access Format  Status   Type       Ident (file)
 -------------------------------------------------------
   3      SEQ    FORM   TRANSP  NORMAL      LOGFILE
                                          ( logfile )


 Buffered I/O statistics
 =======================
 Memory available:                    268435456
 Number of records fitting in memory:     64527
 Input : 100.0% of                            0  *4k bytes
 Output: 100.0% of                            0  *4k bytes
 Records from serial files evicted:           0
                    others evicted:           0
 Hash table lookups:          0 with          0 conflicts (100.00%)
(INPUT FILE)
Create Ag   file=/homes/cmaikens/adf2012.01/atomicdata/ZORA/TZP/Ag.3d
XC
GGA Becke Perdew
End
relativistic ZORA
Corepotentials t12.rel
End Input

 *******************************************************************************
 *                                                                             *
 *  -------------------------------------                                      *
 *   Amsterdam Density Functional  (ADF)         2012.01   January 26, 2012    *
 *  -------------------------------------                                      *
 *                                               Build 201201262307            *
 *                                                                             *
 *                                                                             *
 *                              =================                              *
 *                              |               |                              *
 *                              |     A D F     |                              *
 *                              |               |                              *
 *                              =================                              *
 *                                                                             *
 *                                                                             *
 *   Online information and documentation:  http://www.scm.com                 *
 *   E-mail:  support@scm.com   info@scm.com                                   *
 *                                                                             *
 *   Scientific publications using ADF results must be properly referenced     *
 *   See the User Manuals (or the web site) for recommended citations          *
 *   The terms and conditions of the End User License Agreement apply to       *
 *   the use of ADF, http://www.scm.com/Sales/LicAgreement.html                *
 *                                                                             *
 **********************  pentium64_linux / platform_mpi  ***********************
 
 ADF 2012.01  RunTime: Sep03-2015 15:20:09  Nodes: 1  Procs: 1

 Temporary files are created in /tmp/2104836.1.killable.q/kid_0.346DjC

 Silver (TZP, 3d frozen)



 ===========================
 A T T A C H E D   F I L E S
 ===========================
  
 CREATE - Data File:    /homes/cmaikens/adf2012.01/atomicdata/ZORA/TZP/Ag.3d
                        Silver (TZP, 3d frozen)
 Core Potentials:
         file : t12.rel



 ===============================
 M O D E L   P A R A M E T E R S
 ===============================
  
 DENSITY FUNCTIONAL POTENTIAL (scf)
    LDA:                               VWN                                      
    Gradient Corrections:              Becke88 Perdew86                        == Not Default ==

 SPIN  (restricted / unrestr.)
    Molecule:                          Restricted                               

 OTHER ASPECTS
    Relativistic Corrections:          scalar (ZORA,SAPA)                       *** SPECIAL ***

    Nuclear Charge Density Model:      Point Charge Nuclei                                                                                                                                                                                     
    Core Treatment:                    Frozen Orbital(s)                        

    Electric Field:                    ---                                      

    Hyperfine or Zeeman Interaction:   ---                                      



 =====================================
 S Y M M E T R Y ,   E L E C T R O N S
 =====================================
  
 Symmetry: ATOM

 Irreducible Representations, including subspecies
 -------------------------------------------------
 S
 P:x  P:y  P:z
 D:z2  D:x2-y2  D:xy  D:xz  D:yz
 F:z3  F:z  F:xyz  F:z2x  F:z2y  F:x  F:y


 Configuration of Valence Electrons
 ==================================

          Occupation Numbers
          -------------------------------------------------
 S        2 1
 P        6
 D        10
 F        0
          -------------------------------------------------

 Total:   19

 Net Charge: 0 (Nuclei minus Electrons)

 Preset values for MO occupations will be applied through SCF cycle no. 1000000
 Thereafter, the program will assign electrons to MOs that are spatially
 similar to the occupied MOs in a "reference" cycle ("KeepOrbitals").
 The reference cycle is always the PREVIOUS cycle: it will evolve with
 the SCF procedure.



 ================================
 (Slater-type)  F U N C T I O N S  ***  (Basis and Fit)  ***
 ================================
  

 Atom Type    1  (Ag)
 ==============

 Valence Basis Sets:  18
 -----------------------
   1 S   30.800000
   2 S   20.300000
   3 S    9.550000
   2 P   21.100000
   3 P   10.100000
   3 D   11.650000
   4 S    6.350000
   4 S    4.050000
   5 S    2.600000
   5 S    1.550000
   5 S    0.950000
   4 P    6.150000
   4 P    4.150000
   4 P    2.900000
   4 D    4.750000
   4 D    2.600000
   4 D    1.380000
   5 P    1.550000

 Frozen Core Shells
 ------------------
    S:  3
    P:  2
    D:  1

 Charge Fitting Sets (for the computation of the Coulomb Potential):  51
 -----------------------------------------------------------------------
   1 S   61.600000
   1 S   36.350000
   2 S   39.760000
   3 S   38.850000
   3 S   27.540000
   4 S   25.820000
   4 S   19.060000
   5 S   17.540000
   5 S   13.330000
   6 S   12.140000
   6 S    9.440000
   7 S    8.550000
   7 S    6.760000
   8 S    6.110000
   8 S    4.900000
   8 S    3.930000
   9 S    3.550000
   9 S    2.880000
   9 S    2.340000
   9 S    1.900000
   2 P   51.900000
   3 P   41.280000
   4 P   32.450000
   5 P   25.520000
   6 P   20.150000
   6 P   13.650000
   7 P   10.840000
   7 P    7.550000
   8 P    6.030000
   8 P    4.290000
   9 P    3.450000
   9 P    2.500000
   3 D   42.450000
   4 D   30.180000
   5 D   21.700000
   6 D   15.790000
   6 D    9.890000
   7 D    7.280000
   7 D    4.710000
   8 D    3.510000
   8 D    2.330000
   4 F   32.800000
   5 F   21.490000
   6 F   14.360000
   6 F    8.280000
   7 F    5.640000
   7 F    3.380000
   5 G   23.300000
   6 G   11.600000
   7 G    6.010000
   7 G    2.760000


 BAS: List of all Elementary Cartesian Basis Functions
 =====================================================

 The numbering in the list below (to the right of the function characteristics) is referred
 to in print-outs of MO eigenvectors and Mulliken populations in the BAS representation
 (as contrasted to the SFO representation).

 Notes:
 1. The functions are characterized by a polynomial prefactor (powers of x,y,z and r) and
    an exponential decay factor alpha.
 2. Since the basis sets are specific for an atom TYPE, the individual functions occur on
    all atoms of that type.
 3. The word 'Core' in the left margin signals that it is a Core Function (CF) : not a
    degree of freedom in the valence set, but only used to ensure orthogonalization of
    the other valence basis functions on the frozen Core Orbitals.


 (power of) X  Y  Z  R     Alpha  on Atom
            ==========     =====     ==========

 Ag                                   1
                                  ---------------------------------------------------------------------------
    Core    0  0  0  0    30.800      1
    Core    0  0  0  1    20.300      2
    Core    0  0  0  2     9.550      3
    Core    1  0  0  0    21.100      4
    Core    0  1  0  0    21.100      5
    Core    0  0  1  0    21.100      6
    Core    1  0  0  1    10.100      7
    Core    0  1  0  1    10.100      8
    Core    0  0  1  1    10.100      9
    Core    2  0  0  0    11.650     10
    Core    1  1  0  0    11.650     11
    Core    1  0  1  0    11.650     12
    Core    0  2  0  0    11.650     13
    Core    0  1  1  0    11.650     14
    Core    0  0  2  0    11.650     15
            0  0  0  3     6.350     16
            0  0  0  3     4.050     17
            0  0  0  4     2.600     18
            0  0  0  4     1.550     19
            0  0  0  4     0.950     20
            1  0  0  2     6.150     21
            0  1  0  2     6.150     22
            0  0  1  2     6.150     23
            1  0  0  2     4.150     24
            0  1  0  2     4.150     25
            0  0  1  2     4.150     26
            1  0  0  2     2.900     27
            0  1  0  2     2.900     28
            0  0  1  2     2.900     29
            2  0  0  1     4.750     30
            1  1  0  1     4.750     31
            1  0  1  1     4.750     32
            0  2  0  1     4.750     33
            0  1  1  1     4.750     34
            0  0  2  1     4.750     35
            2  0  0  1     2.600     36
            1  1  0  1     2.600     37
            1  0  1  1     2.600     38
            0  2  0  1     2.600     39
            0  1  1  1     2.600     40
            0  0  2  1     2.600     41
            2  0  0  1     1.380     42
            1  1  0  1     1.380     43
            1  0  1  1     1.380     44
            0  2  0  1     1.380     45
            0  1  1  1     1.380     46
            0  0  2  1     1.380     47
            1  0  0  3     1.550     48
            0  1  0  3     1.550     49
            0  0  1  3     1.550     50

 Total number of charge fitting functions (nprimf)       230
 Total number of Cartesian basis functions (naos)         50
 Total number of Cartesian core functions  (ncos)         15



 BAS: List of all Elementary Cartesian Basis Functions
 =====================================================

 The numbering in the list below (to the right of the function characteristics) is referred
 to in print-outs of MO eigenvectors and Mulliken populations in the BAS representation
 (as contrasted to the SFO representation).

 Notes:
 1. The functions are characterized by a polynomial prefactor (powers of x,y,z and r) and
    an exponential decay factor alpha.
 2. Since the basis sets are specific for an atom TYPE, the individual functions occur on
    all atoms of that type.
 3. The word 'Core' in the left margin signals that it is a Core Function (CF) : not a
    degree of freedom in the valence set, but only used to ensure orthogonalization of
    the other valence basis functions on the frozen Core Orbitals.


 (power of) X  Y  Z  R     Alpha  on Atom
            ==========     =====     ==========

 Ag                                   1
                                  ---------------------------------------------------------------------------
    Core    0  0  0  0    30.800      1
    Core    0  0  0  1    20.300      2
    Core    0  0  0  2     9.550      3
    Core    1  0  0  0    21.100      4
    Core    0  1  0  0    21.100      5
    Core    0  0  1  0    21.100      6
    Core    1  0  0  1    10.100      7
    Core    0  1  0  1    10.100      8
    Core    0  0  1  1    10.100      9
    Core    2  0  0  0    11.650     10
    Core    1  1  0  0    11.650     11
    Core    1  0  1  0    11.650     12
    Core    0  2  0  0    11.650     13
    Core    0  1  1  0    11.650     14
    Core    0  0  2  0    11.650     15
            0  0  0  3     6.350     16
            0  0  0  3     4.050     17
            0  0  0  4     2.600     18
            0  0  0  4     1.550     19
            0  0  0  4     0.950     20
            1  0  0  2     6.150     21
            0  1  0  2     6.150     22
            0  0  1  2     6.150     23
            1  0  0  2     4.150     24
            0  1  0  2     4.150     25
            0  0  1  2     4.150     26
            1  0  0  2     2.900     27
            0  1  0  2     2.900     28
            0  0  1  2     2.900     29
            2  0  0  1     4.750     30
            1  1  0  1     4.750     31
            1  0  1  1     4.750     32
            0  2  0  1     4.750     33
            0  1  1  1     4.750     34
            0  0  2  1     4.750     35
            2  0  0  1     2.600     36
            1  1  0  1     2.600     37
            1  0  1  1     2.600     38
            0  2  0  1     2.600     39
            0  1  1  1     2.600     40
            0  0  2  1     2.600     41
            2  0  0  1     1.380     42
            1  1  0  1     1.380     43
            1  0  1  1     1.380     44
            0  2  0  1     1.380     45
            0  1  1  1     1.380     46
            0  0  2  1     1.380     47
            1  0  0  3     1.550     48
            0  1  0  3     1.550     49
            0  0  1  3     1.550     50
1
 ***************************************************************************************************



                                              ***********************
                                              *  T E C H N I C A L  *
                                              ***********************
  



 =============================================================
 P A R A L L E L I Z A T I O N  and  V E C T O R I Z A T I O N
 =============================================================
  
 Nr of parallel processes:                                1
 Maximum vector length in NumInt loops:                 128



 ===============
 I O  vs.  C P U  ***  (store numerical data on disk or recalculate)  ***
 ===============
  
 Basis functions:   recalculate when needed
 Fit functions:     recalculate when needed

 IO buffersize (Mb):                                    256.000000



 =====================
 S C F   U P D A T E S
 =====================
  
 Max. nr. of cycles:                               100
 Convergence criterion:                              0.0000000100
   secondary criterion:                              0.0000000100

 Mix parameter (when DIIS does not apply):           0.2000000000
 Special mix parameter for the first cycle:          1.0000000000


 DIIS (Direct Inversion in Iteration Space)
    Replace damping when SCF Error is below:         0.5000000000
    Apply anyway after SCF cycle:
                                                     5
    (Max.) nr. of expansion vectors:                10

    Upperbound on expansion coefficients:            5.0000000000
    (when exceeded, IterationSpace is re-built)
    2nd Upperbound on coefficients:                 25.0000000000
    (when exceeded, simple damping will be used)
 Automatic ElectronSmearing (in case of problematic SCF convergence) disabled



 =================
 P R E C I S I O N  ***  (General: NumInt, NeglectFunctionTails, ...)  ***
 =================
  

 NumInt:           Target precision:                10.0000000000
 -------           Initial precision:               10.0000000000
                   Min. precision (optimization):   10.0000000000

 Neglect Functions:          Basis functions:        0.1000000000E-11
 ------------------          Fit functions:          0.1000000000E-11



 ===========================
 L I N E A R   S C A L I N G
 ===========================
  

 Cut-off radii density fit:                        0.1000000000E-13
 Overlap cut-off criterion AO matrix elements:     0.1000000000E-11
 Cut-offs for Coulomb potential and fitted density:0.1000000000E-13
 Cut-off criterion for Coulomb multipole terms:    0.1000000000E-13
 Progressive Convergence parameter:                 0.000000000    
1
 ***************************************************************************************************



                                            ***************************
                                            *  C O M P U T A T I O N  *
                                            ***************************
  

 Number of elements of the density matrix on this node (used, total):      1275      1275



 ====================================================
 Numerical Integration : Voronoi Polyhedra (Te Velde)  ***  (parameters, tests)  ***
 ====================================================
  
 General Accuracy Parameter :                         10.00

 Symmetry used in the points section:  ATOM  


 Summary of the Symmetry Unique Points:
 --------------------------------------
    Nr. of used Symmetry Operators                     1

    Points in the Atomic Spheres                      94
    Points in the Atomic Polyhedra                     0
    Points in the Outer Region                         0
    ----------------------------------------------------
    Total                                             94

    Sum of Weights                                114259.875357

 Total nr. of points:         94
 Nr. of blocks:                1
 Block length:                94
 Nr. of dummy points:          0


 Test of Precision of the Numerical Integration Grid
 ===================================================

 Integral of the Total Core Density:                  27.99999992831499
 Relative Error:                                      -2.560E-09



 =====
 S C F
 =====
  

 CYCLE    1
 orbitals (Q,E):
 ---------------
 S :1...5            ( 2.00    -3.4932)  ( 1.00    -0.1678)  ( 0.00     0.0495)  ( 0.00     0.5481)
                     ( 0.00     4.1890)
 P :1...4            ( 6.00    -2.1702)  ( 0.00     0.0010)  ( 0.00     0.9464)  ( 0.00     6.3133)
 D :1...3            (10.00    -0.2809)  ( 0.00     0.2936)  ( 0.00     2.2251)

 CYCLE    2
 d-Pmat  mean:  0.22E-02
 imax=     33: -0.66E-02
 orbitals (Q,E):
 ---------------
 S :1...3            ( 2.00    -3.4789)  ( 1.00    -0.1655)  ( 0.00     0.0499)
 P :1...2            ( 6.00    -2.1568)  ( 0.00     0.0025)
 D :1...2            (10.00    -0.2711)  ( 0.00     0.2958)

 CYCLE    3
 d-Pmat  mean:  0.14E-02
 imax=     35:  0.43E-02
 orbitals (Q,E):
 ---------------
 S :1...3            ( 2.00    -3.4878)  ( 1.00    -0.1670)  ( 0.00     0.0494)
 P :1...2            ( 6.00    -2.1651)  ( 0.00     0.0014)
 D :1...2            (10.00    -0.2771)  ( 0.00     0.2943)

 CYCLE    4
 d-Pmat  mean:  0.75E-04
 imax=     18:  0.23E-03
 orbitals (Q,E):
 ---------------
 S :1...3            ( 2.00    -3.4884)  ( 1.00    -0.1672)  ( 0.00     0.0493)
 P :1...2            ( 6.00    -2.1657)  ( 0.00     0.0012)
 D :1...2            (10.00    -0.2776)  ( 0.00     0.2941)

 CYCLE    5
 d-Pmat  mean:  0.28E-05
 imax=     18: -0.99E-05
 orbitals (Q,E):
 ---------------
 S :1...3            ( 2.00    -3.4884)  ( 1.00    -0.1672)  ( 0.00     0.0493)
 P :1...2            ( 6.00    -2.1657)  ( 0.00     0.0012)
 D :1...2            (10.00    -0.2775)  ( 0.00     0.2941)

 CYCLE    6
 d-Pmat  mean:  0.17E-07
 imax=     19: -0.13E-06
 orbitals (Q,E):
 ---------------
 S :1...3            ( 2.00    -3.4884)  ( 1.00    -0.1672)  ( 0.00     0.0493)
 P :1...2            ( 6.00    -2.1657)  ( 0.00     0.0012)
 D :1...2            (10.00    -0.2775)  ( 0.00     0.2941)

 CYCLE    7
 d-Pmat  mean:  0.11E-08
 imax=     19: -0.11E-07
 orbitals (Q,E):
 ---------------
 S :1...3            ( 2.00    -3.4884)  ( 1.00    -0.1672)  ( 0.00     0.0493)
 P :1...2            ( 6.00    -2.1657)  ( 0.00     0.0012)
 D :1...2            (10.00    -0.2775)  ( 0.00     0.2941)

 SCF CONVERGED

 CYCLE    8
1
 ***************************************************************************************************



                                                *******************
                                                *  R E S U L T S  *
                                                *******************
  
 *** Setting up for NEW gradients in focky
 *** Using FIT density in focky
 XCFun disabled
 XCFun disabled
 XCFun disabled

 Scaled ZORA Orbital Energies, per Irrep and Spin:
 =================================================
                        Occup              E (au)              E (eV)       Diff (eV) with prev. cycle
                        -----      --------------------        ------       --------------------------
 S
               1        2.000     -0.34883937327255E+01       -94.924               1.01E-09
               2        1.000     -0.16721774376307E+00        -4.550               8.48E-10
               3        0.000      0.49292090859751E-01         1.341
               4        0.000      0.54900113066203E+00        14.939
               5        0.000      0.41923034015691E+01       114.078
 P
               1        6.000     -0.21656535049739E+01       -58.930               1.04E-09
               2        0.000      0.12312059741376E-02         0.034
               3        0.000      0.94805018589873E+00        25.798
               4        0.000      0.63168566721937E+01       171.890
 D
               1       10.000     -0.27753746737237E+00        -7.552               1.07E-09
               2        0.000      0.29412398526233E+00         8.004
               3        0.000      0.22279871540449E+01        60.627


 Partially Occupied:
               2 S                -0.16721774376307E+00
  
 HOMO :        1 D                -0.27753746737237E+00
 LUMO :        2 P                 0.12312059741376E-02
  


 Orbital Energies, all Irreps
 ========================================

 Irrep        no.  (spin)   Occup              E (au)                E (eV)
 ---------------------------------------------------------------------------
 S             1             2.00       -0.34883937327255E+01       -94.9240
 P             1             6.00       -0.21656535049739E+01       -58.9304
 D             1            10.00       -0.27753746737237E+00        -7.5522
 S             2             1.00       -0.16721774376307E+00        -4.5502
 P             2             0.00        0.12312059741376E-02         0.0335
 S             3             0.00        0.49292090859751E-01         1.3413
 D             2             0.00        0.29412398526233E+00         8.0035
 S             4             0.00        0.54900113066203E+00        14.9391
 P             3             0.00        0.94805018589873E+00        25.7978
 D             3             0.00        0.22279871540449E+01        60.6266
 S             5             0.00        0.41923034015691E+01       114.0784
 P             4             0.00        0.63168566721937E+01       171.8904


 Scaled ZORA Orbital Energies of the Core Orbitals:
 ==================================================

 (Note that the atoms are grouped by atomtype, see the labels, and may hence NOT be in input order)

 AtomType  Orbital  Atom                   E (au)                        E (eV)
 --------  -------  ----           --------------------        ----------------
 Ag          1S        1          -0.93051917515589E+03              -25320.715
             2S        1          -0.13700540306455E+03               -3728.107
             3S        1          -0.25114511935225E+02                -683.401
             2P        1          -0.12286153862350E+03               -3343.233
             3P        1          -0.20498924322833E+02                -557.804
             3D        1          -0.13198949396919E+02                -359.162



 =======================================
 M U L L I K E N   P O P U L A T I O N S
 =======================================
  
 The survey below gives for each atom:
 a) the total charge (Z minus electrons)
 b) the net spin polarization (nr of electrons spin-A minus spin-B)
 c) for each spin the atomic electron valence density (integrated) per L-value.

 Atom              Charge    Spin density          S         P         D         F
 ----              ------    ------------       ------    ------    ------    ------
 1 Ag              0.0000                       3.0000    6.0000   10.0000    0.0000

 Populations of individual BAS functions
 ----------------------------------------
 1 Ag          -0.0085  0.0044 -0.0712  0.0003  0.0003  0.0003  0.0270  0.0270  0.0270  0.0387
                0.0580  0.0580  0.0387  0.0580  0.0387  1.3215  0.7613  0.3605  0.5376  0.0943
                0.7450  0.7450  0.7450  1.0681  1.0681  1.0681  0.1587  0.1587  0.1587  0.5515
                0.8273  0.8273  0.5515  0.8273  0.5515  0.6409  0.9614  0.9614  0.6409  0.9614
                0.6409  0.1022  0.1533  0.1533  0.1022  0.1533  0.1022  0.0010  0.0010  0.0010

 Gross Charges per Atom (Z minus electrons)
 ==========================================
             0.0000
 Net Total:  0.00000000


 Atom-Atom Population Matrix (off-diagonal elements not doubled)
 ===============================================================

     1 :    19.0000



 =============
 Dipole Moment  ***  (Debye)  ***
 =============
  
 Vector   :         0.00000000      0.00000000      0.00000000
 Magnitude:         0.00000000

 This molecular dipole moment is calculated with analytic integration



 =========================================
 Quadrupole Moment (Buckingham convention)  ***  (a.u.)  ***
 =========================================
  
      quad-xx        quad-xy        quad-xz        quad-yy        quad-yz        quad-zz
      0.00000000     0.00000000     0.00000000     0.00000000     0.00000000     0.00000000

 This molecular quadrupole moment is calculated with analytic integration



 ===============================================================================
 Electrostatic potential at the Nuclei due to valence electrons and other nuclei
 ===============================================================================
  
         Atom                  Potential
         ----                  ---------
     1)   Ag                 21.10983739
 
 
 ========================
 No memory problems found
 ========================
 
 Maximum number of active allocate calls:         391
 
 *******************************************************************************

                             A D F   E X I T
 NORMAL TERMINATION



 =================
 Timing Statistics
 =================
  
 Total Used :                     CPU=        0.20      System=        0.09     Elapsed=        0.92

 Calls  Section                     ( Mean, Percentage )
 ---------------------------------------------------------------------------------------------------
     3  ><      ................      0.00    0.00             0.00    0.00             0.00    0.56
     1  INIT    ................      0.01    5.00             0.00    0.00             0.13   14.40
     1  GEOMET  ................      0.01    5.00             0.06   66.67             0.29   31.67
     1  INPUTA  ................      0.00    0.00             0.00    0.00             0.00    0.21
     1  MAINSY  ................      0.01    5.00             0.01   11.11             0.02    2.71
     1  SYMFIT  ................      0.00    0.00             0.00    0.00             0.00    0.03
     1  CORORT  ................      0.00    0.00             0.00    0.00             0.00    0.04
     1  SYMORB  ................      0.00    0.00             0.00    0.00             0.00    0.07
     1  FITINT  ................      0.00    0.00             0.00    0.00             0.00    0.51
     1  CLSMAT  ................      0.00    0.00             0.00    0.00             0.00    0.03
     1  ORTHON  ................      0.00    0.00             0.00    0.00             0.00    0.50
     1  ETALOW  ................      0.00    0.00             0.00    0.00             0.00    0.05
     1  GENPT   ................      0.00    0.00             0.01   11.11             0.01    1.12
     1  PTBAS   ................      0.01    5.00             0.00    0.00             0.00    0.25
     8  FOCKY   ................      0.01   60.00             0.00   11.11             0.05   41.76
     8  FOCKTR  ................      0.00    0.00             0.00    0.00             0.00    0.22
     8  FOCKNM  ................      0.00    0.00             0.00    0.00             0.00    0.03
     8  SDIIS   ................      0.00    0.00             0.00    0.00             0.00    0.30
     8  EMERGE  ................      0.00    5.00             0.00    0.00             0.00    2.01
     1  COREPS  ................      0.01    5.00             0.00    0.00             0.01    1.02
     1  POPAN   ................      0.00    0.00             0.00    0.00             0.00    0.20
     1  DEBYE   ................      0.00    0.00             0.00    0.00             0.00    0.06
     1  QMPOT   ................      0.00    0.00             0.00    0.00             0.00    0.34
     1  EXIT PROCEDURE .........      0.02   10.00             0.00    0.00             0.02    1.91


 Currently Open Files (EXIT00)
 ====================

 Unit    Access Format  Status   Type       Ident (file)
 -------------------------------------------------------
   3      SEQ    FORM   TRANSP  NORMAL      LOGFILE
                                          ( logfile )


 Buffered I/O statistics
 =======================
 Memory available:                    268435456
 Number of records fitting in memory:     64527
 Input :   1.3% of                         3830  *4k bytes
 Output:  10.3% of                         1959  *4k bytes
 Records from serial files evicted:           0
                    others evicted:           0
 Hash table lookups:      15695 with          0 conflicts (  0.00%)

 ***************************************************************************************************
 (LOGFILE)
 <Sep03-2015> <15:20:05>  DIRAC 2012.01  RunTime: Sep03-2015 15:20:05  Nodes: 1  Procs: 1
 <Sep03-2015> <15:20:05>  NORMAL TERMINATION
 <Sep03-2015> <15:20:05>  END
 <Sep03-2015> <15:20:05>  ADF 2012.01  RunTime: Sep03-2015 15:20:05  Nodes: 1  Procs: 1
 <Sep03-2015> <15:20:05>  Hydrogen (TZP)
 <Sep03-2015> <15:20:05>  RunType   : CREATE
 <Sep03-2015> <15:20:06>  Net Charge: 0 (Nuclei minus Electrons)
 <Sep03-2015> <15:20:06>  Symmetry  : ATOM
 <Sep03-2015> <15:20:06>  >>>> CORORT
 <Sep03-2015> <15:20:06>  >>>> FITINT
 <Sep03-2015> <15:20:06>  >>>> CLSMAT
 <Sep03-2015> <15:20:06>  >>>> ORTHON
 <Sep03-2015> <15:20:06>  >>>> GENPT
 <Sep03-2015> <15:20:06>  Acc.Num.Int.=  10.000
 <Sep03-2015> <15:20:06>  Block Length=  35
 <Sep03-2015> <15:20:06>  >>>> PTBAS
 <Sep03-2015> <15:20:06>  >>>> CYCLE
 <Sep03-2015> <15:20:07>    1
 <Sep03-2015> <15:20:07>    2  ErrMat   0.00258453  MaxEl -0.00253172
 <Sep03-2015> <15:20:07>    3  ErrMat   0.00050241  MaxEl  0.00048214
 <Sep03-2015> <15:20:07>    4  ErrMat   0.00000638  MaxEl  0.00000533
 <Sep03-2015> <15:20:07>    5  ErrMat   0.00000001  MaxEl -0.00000001
 <Sep03-2015> <15:20:07>  SCF converged
 <Sep03-2015> <15:20:07>    6  ErrMat   0.00000000  MaxEl  0.00000000
 <Sep03-2015> <15:20:07>   Solutions with partially occupied orbitals may not be
 <Sep03-2015> <15:20:07>   lowest in energy. You might consider lowering the
 <Sep03-2015> <15:20:07>   symmetry in the input and explicitly specifying integer
 <Sep03-2015> <15:20:07>   occupations. In that case always check that you obtain
 <Sep03-2015> <15:20:07>   an aufbau solution.
 <Sep03-2015> <15:20:07>  >>>> POPAN
 <Sep03-2015> <15:20:07>  >>>> DEBYE
 <Sep03-2015> <15:20:07>  NORMAL TERMINATION
 <Sep03-2015> <15:20:07>  END
 <Sep03-2015> <15:20:08>  DIRAC 2012.01  RunTime: Sep03-2015 15:20:08  Nodes: 1  Procs: 1
 <Sep03-2015> <15:20:08>  NORMAL TERMINATION
 <Sep03-2015> <15:20:08>  END
 <Sep03-2015> <15:20:09>  ADF 2012.01  RunTime: Sep03-2015 15:20:09  Nodes: 1  Procs: 1
 <Sep03-2015> <15:20:09>  Silver (TZP, 3d frozen)
 <Sep03-2015> <15:20:09>  RunType   : CREATE
 <Sep03-2015> <15:20:09>  Net Charge: 0 (Nuclei minus Electrons)
 <Sep03-2015> <15:20:09>  Symmetry  : ATOM
 <Sep03-2015> <15:20:09>  >>>> CORORT
 <Sep03-2015> <15:20:10>  >>>> FITINT
 <Sep03-2015> <15:20:10>  >>>> CLSMAT
 <Sep03-2015> <15:20:10>  >>>> ORTHON
 <Sep03-2015> <15:20:10>  >>>> GENPT
 <Sep03-2015> <15:20:10>  Acc.Num.Int.=  10.000
 <Sep03-2015> <15:20:10>  Block Length=  94
 <Sep03-2015> <15:20:10>  >>>> PTBAS
 <Sep03-2015> <15:20:10>  >>>> CYCLE
 <Sep03-2015> <15:20:10>    1
 <Sep03-2015> <15:20:10>    2  ErrMat   0.02728591  MaxEl  0.00887264
 <Sep03-2015> <15:20:10>    3  ErrMat   0.05713964  MaxEl -0.01729688
 <Sep03-2015> <15:20:10>    4  ErrMat   0.00229105  MaxEl -0.00078765
 <Sep03-2015> <15:20:10>    5  ErrMat   0.00007667  MaxEl  0.00002781
 <Sep03-2015> <15:20:10>    6  ErrMat   0.00000030  MaxEl -0.00000012
 <Sep03-2015> <15:20:10>    7  ErrMat   0.00000001  MaxEl  0.00000000
 <Sep03-2015> <15:20:10>  SCF converged
 <Sep03-2015> <15:20:10>    8  ErrMat   0.00000000  MaxEl  0.00000000
 <Sep03-2015> <15:20:10>   Solutions with partially occupied orbitals may not be
 <Sep03-2015> <15:20:10>   lowest in energy. You might consider lowering the
 <Sep03-2015> <15:20:10>   symmetry in the input and explicitly specifying integer
 <Sep03-2015> <15:20:10>   occupations. In that case always check that you obtain
 <Sep03-2015> <15:20:10>   an aufbau solution.
 <Sep03-2015> <15:20:10>  >>>> POPAN
 <Sep03-2015> <15:20:10>  >>>> DEBYE
 <Sep03-2015> <15:20:10>  NORMAL TERMINATION
 <Sep03-2015> <15:20:10>  END
(INPUT FILE)
title Au20 cluster optimization with 4f frozen core - td structure

RELATIVISTIC SCALAR ZORA SAPA

SCF
Converge 1e-8
Iterations 300
END

Solvation
Solv Name =Methanol
END

INTEGRATION 6.0

::Unrestricted
::CHARGE +1

XC
GGA Becke Perdew
END

GEOMETRY
::TS
converge E=1e-4 grad=1e-3
smooth aggressive
iterations 100
::frequencies
END

Atoms
Ag        -2.21305299    -0.19196300    -0.02409100
H         -2.21305299     1.58803701    -0.02409100
END

Fragments
H t21.H
Ag t21.Ag
End
end input

 *******************************************************************************
 *                                                                             *
 *  -------------------------------------                                      *
 *   Amsterdam Density Functional  (ADF)         2012.01   January 26, 2012    *
 *  -------------------------------------                                      *
 *                                               Build 201201262307            *
 *                                                                             *
 *                                                                             *
 *                              =================                              *
 *                              |               |                              *
 *                              |     A D F     |                              *
 *                              |               |                              *
 *                              =================                              *
 *                                                                             *
 *                                                                             *
 *   Online information and documentation:  http://www.scm.com                 *
 *   E-mail:  support@scm.com   info@scm.com                                   *
 *                                                                             *
 *   Scientific publications using ADF results must be properly referenced     *
 *   See the User Manuals (or the web site) for recommended citations          *
 *   The terms and conditions of the End User License Agreement apply to       *
 *   the use of ADF, http://www.scm.com/Sales/LicAgreement.html                *
 *                                                                             *
 **********************  pentium64_linux / platform_mpi  ***********************
 
 ADF 2012.01  RunTime: Sep03-2015 15:20:10  Nodes: 1  Procs: 1

 Temporary files are created in /tmp/2104836.1.killable.q/kid_0.BqJ1UU

 Au20 cluster optimization with 4f frozen core - td structure



 ===========================
 A T T A C H E D   F I L E S
 ===========================
  



 ===============================
 M O D E L   P A R A M E T E R S
 ===============================
  
 DENSITY FUNCTIONAL POTENTIAL (scf)
    LDA:                               VWN                                      
    Gradient Corrections:              Becke88 Perdew86                        == Not Default ==

 SPIN  (restricted / unrestr.)
    Molecule:                          Restricted                               
    Fragments:                         Restricted                               

 OTHER ASPECTS
    Relativistic Corrections:          scalar (ZORA,SAPA)                       *** SPECIAL ***

    Nuclear Charge Density Model:      Point Charge Nuclei                                                                                                                                                                                     
    Core Treatment:                    Frozen Orbital(s)                        

    Electric Field:                    ---                                      

    Hyperfine or Zeeman Interaction:   ---                                      

 SOLVATION
-------------------------------------------

  The Solvent-Excluding surface is calculated

       Division Level for Surface Triangles (NDIV)                  3
       Final Division Level for Triangles (NFDIV)                   1
       Radius of the Solvent (RSOL)                           2.53000 angstr
       Minimum Radius for new sphere (RMINSOLV)               0.50000 angstr
       Overlapping Factor (OFAC)                              0.80000
       New spheres will be assigned to the initials using ASSG1

  Dielectric Constant (EPSL)                                 32.60000

       COSMO equation is solved iteratively-               conjugate-gradient

       Maximun of Iterations for Charges (NCIX)                  1000
       Criterion for Charge convergence (CCNV)                1.0E-10

  COSMO charges included variationally in SCF

       COSMO included at every SCF cycle

  Geometry-dependent empirical factor                         0.00000

  C-Matrix calculated in cspmtx

  In cspmtx, C-Matrix calculated using fitted potential

-------------------------------------------



 Fragment File(s)
 ----------------
 Ag:
         file : t21.Ag
         jobid: ADF 2012.01  RunTime: Sep03-2015 15:20:09  Nodes: 1  Procs: 1
         title: Silver (TZP, 3d frozen)
 H:
         file : t21.H
         jobid: ADF 2012.01  RunTime: Sep03-2015 15:20:05  Nodes: 1  Procs: 1
         title: Hydrogen (TZP)



                                   *********************************************
                                   *  R U N   T Y P E : GEOMETRY OPTIMIZATION  *
                                   *********************************************
  



 ===============
 G E O M E T R Y  ***  Linear Molecule  ***
 ===============
  

 ATOMS
 =====                            X Y Z                    CHARGE                     RADIUS
                                (Angstrom)             Nucl     +Core       At.Mass (Angstrom)
                       --------------------------    ----------------       ------- ----------
    1  Ag              0.0000    0.0000   -0.1920     47.00     19.00      106.9051    2.0250
    2  H               0.0000    0.0000    1.5880      1.00      1.00        1.0078    1.3500


 FRAGMENTS
 =========                                     Atoms in this Fragment     Cart. coord.s (Angstrom)
                                               -------------------------------------------------------
    1  Ag                                                1  Ag           0.0000    0.0000   -0.1920
    2  H                                                 2  H            0.0000    0.0000    1.5880


 Interatomic Distance Matrix (Angstrom)
 --------------------------------------

   1)     0.000
   2)     1.780   0.000



 =====================================
 S Y M M E T R Y ,   E L E C T R O N S
 =====================================
  
 Symmetry: C(LIN)

 Irreducible Representations, including subspecies
 -------------------------------------------------
 SIGMA
 PI:x  PI:y
 DELTA:x2-y2  DELTA:xy
 PHI:x3-3xy2  PHI:3x2y-y3


 Configuration of Valence Electrons
 ==================================
 ( determined in the SCF procedure )

 Total:   20

 Net Charge: 0 (Nuclei minus Electrons)

 Aufbau principle for MO occupations will be applied through SCF cycle no.      30
 Thereafter, the program will assign electrons to MOs that are spatially
 similar to the occupied MOs in a "reference" cycle ("KeepOrbitals").
 The reference cycle is always the PREVIOUS cycle: it will evolve with
 the SCF procedure.
1
 ***************************************************************************************************



                                      ****************************************
                                      *  B U I L D : (Fragments, Functions)  *
                                      ****************************************
  



 =======
 S F O s  ***  (Symmetrized Fragment Orbitals)  ***
 =======
  
 SFOs are linear combinations of (valence) Fragment Orbitals (FOs), such that the SFOs transform as the
 irreducible representations of the (molecular) symmetry group. Each SFO is therefore characterized by
 an irrep of the molecule and by a few (or only one) generating FOs.
 The SFOs constitute a symmetry-adapted basis for the Fock matrix. The MO eigenvector coefficients in
 this basis provide a direct interpretation of the MOs in terms of Frontier Orbital Theory.

 The SFOs are combined with auxiliary Core Functions (CFs) to ensure orthogonalization on the (frozen)
 Core Orbitals (COs). The Core-orthogonalized SFOs (CSFOs) constitute the true Fock basis.

 The FOs, and hence also the (C)SFOs are combinations of the elementary basis functions (BAS). The basis
 functions that participate in the description of the SFOs depend on the irrep. The indices of the
 involved functions are printed below for each irrep.
 (The complete list of primitive basis functions is printed in another section)

 Total nr. of (C)SFOs (summation over all irreps) :    38

 NOTE: a (C)SFO that is defined as a combination of more than one FO is usually NOT normalized.



                                       === SIGMA ===
 Nr. of SFOs :   16
 Cartesian basis functions that participate in this irrep (total number =    30) :
      1     2     3     6     9    15    10    13    16    17
     18    19    20    23    26    29    50    35    41    47
     30    33    36    39    42    45    51    52    53    56

    SFO  (index         Fragment          Generating    Expansion in Fragment Orbitals
  indx  incl.CFs)   Occup   Orb.Energy   FragmentType  Coeff.   Orbital     on Fragment
 --------------------------------------------------------------------------------------
     1       9      2.000      -3.490 au  Ag            1.00      1 S               1
                        (     -94.963 eV)
     2      10      1.000      -0.167 au  Ag            1.00      2 S               1
                        (      -4.550 eV)
     3      11       --         0.049 au  Ag            1.00      3 S               1
                        (       1.341 eV)
     4      12       --         0.549 au  Ag            1.00      4 S               1
                        (      14.940 eV)
     5      13       --         4.196 au  Ag            1.00      5 S               1
                        (     114.167 eV)
     6      14      2.000      -2.166 au  Ag            1.00      1 P:z             1
                        (     -58.952 eV)
     7      15       --         0.001 au  Ag            1.00      2 P:z             1
                        (       0.034 eV)
     8      16       --         0.948 au  Ag            1.00      3 P:z             1
                        (      25.801 eV)
     9      17       --         6.323 au  Ag            1.00      4 P:z             1
                        (     172.071 eV)
    10      18      2.000      -0.278 au  Ag            1.00      1 D:z2            1
                        (      -7.554 eV)
    11      19       --         0.294 au  Ag            1.00      2 D:z2            1
                        (       8.004 eV)
[...]
     6  GENPT   ................      0.02    1.69             0.01   14.29             0.02    1.69
     6  PTBAS   ................      0.04    3.25             0.00    0.00             0.04    3.18
    64  FOCKY   ................      0.07   58.65             0.00   33.33             0.07   55.77
    64  FOCKTR  ................      0.00    0.26             0.00    0.00             0.00    0.22
    64  FOCKNM  ................      0.00    0.00             0.00    0.00             0.00    0.02
    64  SDIIS   ................      0.00    0.26             0.00    0.00             0.00    0.28
    64  EMERGE  ................      0.00    1.17             0.00    0.00             0.00    1.57
     6  TOTEN   ................      0.21   16.51             0.00    9.52             0.21   15.64
     6  POPAN   ................      0.00    0.00             0.00    0.00             0.00    0.06
     6  DEBYE   ................      0.00    0.00             0.00    0.00             0.00    0.10
     6  INPUTE  ................      0.00    0.00             0.00    0.00             0.00    0.02
     6  SYMORE  ................      0.00    0.00             0.00    0.00             0.00    0.03
    12  METS    ................      0.00    0.00             0.00    0.00             0.00    0.04
     6  CETS    ................      0.00    0.26             0.00    0.00             0.00    0.10
    11  ELNRGY  ................      0.10   13.91             0.00    0.00             0.10   12.94
     5  ENGRAD  ................      0.00    0.00             0.00    0.00             0.00    0.01
     1  COREPS  ................      0.07    0.91             0.00    0.00             0.07    0.87
     1  POPUL   ................      0.00    0.00             0.00    0.00             0.00    0.02
     1  QMPOT   ................      0.00    0.00             0.00    0.00             0.00    0.04
     1  EXIT PROCEDURE .........      0.02    0.26             0.00    0.00             0.02    0.22


 Currently Open Files (EXIT00)
 ====================

 Unit    Access Format  Status   Type       Ident (file)
 -------------------------------------------------------
   3      SEQ    FORM   TRANSP  NORMAL      LOGFILE
                                          ( logfile )


 Buffered I/O statistics
 =======================
 Memory available:                    268435456
 Number of records fitting in memory:     64527
 Input :   2.3% of                        84256  *4k bytes
 Output:   5.1% of                        20043  *4k bytes
 Records from serial files evicted:           0
                    others evicted:           0
 Hash table lookups:     290963 with          0 conflicts (  0.00%)

 ***************************************************************************************************
 (LOGFILE)
 <Sep03-2015> <15:20:05>  DIRAC 2012.01  RunTime: Sep03-2015 15:20:05  Nodes: 1  Procs: 1
 <Sep03-2015> <15:20:05>  NORMAL TERMINATION
 <Sep03-2015> <15:20:05>  END
 <Sep03-2015> <15:20:05>  ADF 2012.01  RunTime: Sep03-2015 15:20:05  Nodes: 1  Procs: 1
 <Sep03-2015> <15:20:05>  Hydrogen (TZP)
 <Sep03-2015> <15:20:05>  RunType   : CREATE
 <Sep03-2015> <15:20:06>  Net Charge: 0 (Nuclei minus Electrons)
 <Sep03-2015> <15:20:06>  Symmetry  : ATOM
 <Sep03-2015> <15:20:06>  >>>> CORORT
 <Sep03-2015> <15:20:06>  >>>> FITINT
 <Sep03-2015> <15:20:06>  >>>> CLSMAT
 <Sep03-2015> <15:20:06>  >>>> ORTHON
 <Sep03-2015> <15:20:06>  >>>> GENPT
 <Sep03-2015> <15:20:06>  Acc.Num.Int.=  10.000
 <Sep03-2015> <15:20:06>  Block Length=  35
 <Sep03-2015> <15:20:06>  >>>> PTBAS
 <Sep03-2015> <15:20:06>  >>>> CYCLE
 <Sep03-2015> <15:20:07>    1
 <Sep03-2015> <15:20:07>    2  ErrMat   0.00258453  MaxEl -0.00253172
 <Sep03-2015> <15:20:07>    3  ErrMat   0.00050241  MaxEl  0.00048214
 <Sep03-2015> <15:20:07>    4  ErrMat   0.00000638  MaxEl  0.00000533
 <Sep03-2015> <15:20:07>    5  ErrMat   0.00000001  MaxEl -0.00000001
 <Sep03-2015> <15:20:07>  SCF converged
 <Sep03-2015> <15:20:07>    6  ErrMat   0.00000000  MaxEl  0.00000000
 <Sep03-2015> <15:20:07>   Solutions with partially occupied orbitals may not be
 <Sep03-2015> <15:20:07>   lowest in energy. You might consider lowering the
 <Sep03-2015> <15:20:07>   symmetry in the input and explicitly specifying integer
 <Sep03-2015> <15:20:07>   occupations. In that case always check that you obtain
 <Sep03-2015> <15:20:07>   an aufbau solution.
 <Sep03-2015> <15:20:07>  >>>> POPAN
 <Sep03-2015> <15:20:07>  >>>> DEBYE
 <Sep03-2015> <15:20:07>  NORMAL TERMINATION
 <Sep03-2015> <15:20:07>  END
 <Sep03-2015> <15:20:08>  DIRAC 2012.01  RunTime: Sep03-2015 15:20:08  Nodes: 1  Procs: 1
 <Sep03-2015> <15:20:08>  NORMAL TERMINATION
 <Sep03-2015> <15:20:08>  END
 <Sep03-2015> <15:20:09>  ADF 2012.01  RunTime: Sep03-2015 15:20:09  Nodes: 1  Procs: 1
 <Sep03-2015> <15:20:09>  Silver (TZP, 3d frozen)
 <Sep03-2015> <15:20:09>  RunType   : CREATE
 <Sep03-2015> <15:20:09>  Net Charge: 0 (Nuclei minus Electrons)
 <Sep03-2015> <15:20:09>  Symmetry  : ATOM
 <Sep03-2015> <15:20:09>  >>>> CORORT
 <Sep03-2015> <15:20:10>  >>>> FITINT
 <Sep03-2015> <15:20:10>  >>>> CLSMAT
 <Sep03-2015> <15:20:10>  >>>> ORTHON
 <Sep03-2015> <15:20:10>  >>>> GENPT
 <Sep03-2015> <15:20:10>  Acc.Num.Int.=  10.000
 <Sep03-2015> <15:20:10>  Block Length=  94
 <Sep03-2015> <15:20:10>  >>>> PTBAS
 <Sep03-2015> <15:20:10>  >>>> CYCLE
 <Sep03-2015> <15:20:10>    1
 <Sep03-2015> <15:20:10>    2  ErrMat   0.02728591  MaxEl  0.00887264
 <Sep03-2015> <15:20:10>    3  ErrMat   0.05713964  MaxEl -0.01729688
 <Sep03-2015> <15:20:10>    4  ErrMat   0.00229105  MaxEl -0.00078765
 <Sep03-2015> <15:20:10>    5  ErrMat   0.00007667  MaxEl  0.00002781
 <Sep03-2015> <15:20:10>    6  ErrMat   0.00000030  MaxEl -0.00000012
 <Sep03-2015> <15:20:10>    7  ErrMat   0.00000001  MaxEl  0.00000000
 <Sep03-2015> <15:20:10>  SCF converged
 <Sep03-2015> <15:20:10>    8  ErrMat   0.00000000  MaxEl  0.00000000
 <Sep03-2015> <15:20:10>   Solutions with partially occupied orbitals may not be
 <Sep03-2015> <15:20:10>   lowest in energy. You might consider lowering the
 <Sep03-2015> <15:20:10>   symmetry in the input and explicitly specifying integer
 <Sep03-2015> <15:20:10>   occupations. In that case always check that you obtain
 <Sep03-2015> <15:20:10>   an aufbau solution.
 <Sep03-2015> <15:20:10>  >>>> POPAN
 <Sep03-2015> <15:20:10>  >>>> DEBYE
 <Sep03-2015> <15:20:10>  NORMAL TERMINATION
 <Sep03-2015> <15:20:10>  END
 <Sep03-2015> <15:20:10>  ADF 2012.01  RunTime: Sep03-2015 15:20:10  Nodes: 1  Procs: 1
 <Sep03-2015> <15:20:10>  Au20 cluster optimization with 4f frozen core - td structure
 <Sep03-2015> <15:20:10>  RunType   : GEOMETRY OPTIMIZATION
 <Sep03-2015> <15:20:11>  Net Charge: 0 (Nuclei minus Electrons)
 <Sep03-2015> <15:20:11>  Symmetry  : C(LIN)
 <Sep03-2015> <15:20:11>  >>>> FRAGM
  Coordinates in Geometry Cycle 1
    Atom         X           Y           Z   (Angstrom)
    1.Ag        0.000000    0.000000   -0.191963
    2.H         0.000000    0.000000    1.588037
 <Sep03-2015> <15:20:11>  >>>> CORORT
 <Sep03-2015> <15:20:11>  >>>> FITINT
 <Sep03-2015> <15:20:11>  >>>> CLSMAT
 <Sep03-2015> <15:20:11>  >>>> ORTHON
 <Sep03-2015> <15:20:11>  >>>> GENPT
 <Sep03-2015> <15:20:11>  Acc.Num.Int.=   6.000
 <Sep03-2015> <15:20:11>  Block Length= 123
 <Sep03-2015> <15:20:11>  >>>> PTBAS
 <Sep03-2015> <15:20:11>  >>>> SURPTS
 <Sep03-2015> <15:20:11>  combining surface points...
 <Sep03-2015> <15:20:11>  >>>> CYCLE
 <Sep03-2015> <15:20:11>    1
 <Sep03-2015> <15:20:11>    2  ErrMat   0.22462081  MaxEl -0.08646707
 <Sep03-2015> <15:20:11>    3  ErrMat   0.11682844  MaxEl -0.05316902
 <Sep03-2015> <15:20:11>    4  ErrMat   0.07426736  MaxEl  0.02708066
 <Sep03-2015> <15:20:11>    5  ErrMat   0.00365700  MaxEl -0.00187840
 <Sep03-2015> <15:20:11>    6  ErrMat   0.00118271  MaxEl  0.00034960
 <Sep03-2015> <15:20:11>  SCF converged
 <Sep03-2015> <15:20:11>    7  ErrMat   0.00013457  MaxEl -0.00003954
 <Sep03-2015> <15:20:11>  >>>> TOTEN
 <Sep03-2015> <15:20:11>  >>>> POPAN
 <Sep03-2015> <15:20:11>  >>>> DEBYE
 <Sep03-2015> <15:20:11>  >>>> AMETS
 <Sep03-2015> <15:20:11>  >>>> ENGRAD
 <Sep03-2015> <15:20:12>  current energy                               -0.13942002 Hartree
 <Sep03-2015> <15:20:12>  energy change                      -0.13942002     0.00010000    F
 <Sep03-2015> <15:20:12>  constrained gradient max            0.04598411     0.00100000    F
 <Sep03-2015> <15:20:12>  constrained gradient rms            0.02654894     0.00066667    F
 <Sep03-2015> <15:20:12>  gradient max                        0.04598411
 <Sep03-2015> <15:20:12>  gradient rms                        0.02654894
 <Sep03-2015> <15:20:12>  cart. step max                      0.03428228     0.01000000    F
 <Sep03-2015> <15:20:12>  cart. step rms                      0.01399631     0.00666667    F
  Coordinates in Geometry Cycle 2
    Atom         X           Y           Z   (Angstrom)
    1.Ag        0.000000    0.000000   -0.191640
    2.H         0.000000    0.000000    1.553755
 <Sep03-2015> <15:20:12>  >>>> CORORT
 <Sep03-2015> <15:20:12>  >>>> FITINT
 <Sep03-2015> <15:20:12>  >>>> CLSMAT
 <Sep03-2015> <15:20:12>  >>>> ORTHON
 <Sep03-2015> <15:20:12>  >>>> GENPT
 <Sep03-2015> <15:20:12>  Acc.Num.Int.=   6.000
 <Sep03-2015> <15:20:12>  Block Length= 123
 <Sep03-2015> <15:20:12>  >>>> PTBAS
 <Sep03-2015> <15:20:12>  >>>> SURPTS
 <Sep03-2015> <15:20:12>  combining surface points...
 <Sep03-2015> <15:20:12>  >>>> CYCLE
 <Sep03-2015> <15:20:12>    1
 <Sep03-2015> <15:20:12>    2  ErrMat   0.15518928  MaxEl  0.10796657
 <Sep03-2015> <15:20:12>    3  ErrMat   0.07955087  MaxEl  0.05675097
 <Sep03-2015> <15:20:12>    4  ErrMat   0.06661149  MaxEl  0.02012829
 <Sep03-2015> <15:20:12>    5  ErrMat   0.00871110  MaxEl -0.00269224
 <Sep03-2015> <15:20:12>    6  ErrMat   0.00496802  MaxEl  0.00142908
 <Sep03-2015> <15:20:12>    7  ErrMat   0.00059700  MaxEl -0.00015792
 <Sep03-2015> <15:20:12>    8  ErrMat   0.00005425  MaxEl  0.00001316
 <Sep03-2015> <15:20:12>    9  ErrMat   0.00000683  MaxEl -0.00000258
 <Sep03-2015> <15:20:13>   10  ErrMat   0.00000065  MaxEl -0.00000015
 <Sep03-2015> <15:20:13>  SCF converged
 <Sep03-2015> <15:20:13>   11  ErrMat   0.00000005  MaxEl  0.00000001
 <Sep03-2015> <15:20:13>  >>>> TOTEN
 <Sep03-2015> <15:20:13>  >>>> POPAN
 <Sep03-2015> <15:20:13>  >>>> DEBYE
 <Sep03-2015> <15:20:13>  >>>> AMETS
 <Sep03-2015> <15:20:13>  >>>> ENGRAD
 <Sep03-2015> <15:20:13>  current energy                               -0.14087035 Hartree
 <Sep03-2015> <15:20:13>  energy change                      -0.00145033     0.00010000    F
 <Sep03-2015> <15:20:13>  constrained gradient max            0.03888991     0.00100000    F
 <Sep03-2015> <15:20:13>  constrained gradient rms            0.02245310     0.00066667    F
 <Sep03-2015> <15:20:13>  gradient max                        0.03888991
 <Sep03-2015> <15:20:13>  gradient rms                        0.02245310
 <Sep03-2015> <15:20:13>  cart. step max                      0.10484702     0.01000000    F
 <Sep03-2015> <15:20:13>  cart. step rms                      0.04280552     0.00666667    F
  Coordinates in Geometry Cycle 3
    Atom         X           Y           Z   (Angstrom)
    1.Ag        0.000000    0.000000   -0.190651
    2.H         0.000000    0.000000    1.448908
 <Sep03-2015> <15:20:13>  >>>> CORORT
 <Sep03-2015> <15:20:13>  >>>> FITINT
 <Sep03-2015> <15:20:13>  >>>> CLSMAT
 <Sep03-2015> <15:20:13>  >>>> ORTHON
 <Sep03-2015> <15:20:13>  >>>> GENPT
 <Sep03-2015> <15:20:13>  Acc.Num.Int.=   6.000
 <Sep03-2015> <15:20:13>  Block Length= 121
 <Sep03-2015> <15:20:13>  >>>> PTBAS
 <Sep03-2015> <15:20:13>  >>>> SURPTS
 <Sep03-2015> <15:20:13>  >>>> CYCLE
 <Sep03-2015> <15:20:13>    1
 <Sep03-2015> <15:20:13>    2  ErrMat   0.13298258  MaxEl  0.08560161
 <Sep03-2015> <15:20:13>    3  ErrMat   0.07351785  MaxEl  0.04744470
 <Sep03-2015> <15:20:13>    4  ErrMat   0.02748668  MaxEl  0.00851105
 <Sep03-2015> <15:20:13>    5  ErrMat   0.01550806  MaxEl -0.00372998
 <Sep03-2015> <15:20:14>    6  ErrMat   0.00490205  MaxEl  0.00140252
 <Sep03-2015> <15:20:14>    7  ErrMat   0.00062660  MaxEl -0.00016912
 <Sep03-2015> <15:20:14>    8  ErrMat   0.00013093  MaxEl -0.00007389
 <Sep03-2015> <15:20:14>    9  ErrMat   0.00004481  MaxEl -0.00002006
 <Sep03-2015> <15:20:14>   10  ErrMat   0.00000429  MaxEl  0.00000201
 <Sep03-2015> <15:20:14>   11  ErrMat   0.00000017  MaxEl -0.00000007
 <Sep03-2015> <15:20:14>  SCF converged
 <Sep03-2015> <15:20:14>   12  ErrMat   0.00000002  MaxEl  0.00000001
 <Sep03-2015> <15:20:14>  >>>> TOTEN
 <Sep03-2015> <15:20:14>  >>>> POPAN
 <Sep03-2015> <15:20:14>  >>>> DEBYE
 <Sep03-2015> <15:20:14>  >>>> AMETS
 <Sep03-2015> <15:20:14>  >>>> ENGRAD
 <Sep03-2015> <15:20:14>  current energy                               -0.14338794 Hartree
 <Sep03-2015> <15:20:14>  energy change                      -0.00251760     0.00010000    F
 <Sep03-2015> <15:20:14>  constrained gradient max            0.00703373     0.00100000    F
 <Sep03-2015> <15:20:14>  constrained gradient rms            0.00406093     0.00066667    F
 <Sep03-2015> <15:20:14>  gradient max                        0.00703373
 <Sep03-2015> <15:20:14>  gradient rms                        0.00406093
 <Sep03-2015> <15:20:14>  cart. step max                      0.02314985     0.01000000    F
 <Sep03-2015> <15:20:14>  cart. step rms                      0.00945131     0.00666667    F
  Coordinates in Geometry Cycle 4
    Atom         X           Y           Z   (Angstrom)
    1.Ag        0.000000    0.000000   -0.190433
    2.H         0.000000    0.000000    1.425758
 <Sep03-2015> <15:20:14>  >>>> CORORT
 <Sep03-2015> <15:20:14>  >>>> FITINT
 <Sep03-2015> <15:20:14>  >>>> CLSMAT
 <Sep03-2015> <15:20:14>  >>>> ORTHON
 <Sep03-2015> <15:20:14>  >>>> GENPT
 <Sep03-2015> <15:20:14>  Acc.Num.Int.=   6.000
 <Sep03-2015> <15:20:14>  Block Length= 122
 <Sep03-2015> <15:20:15>  >>>> PTBAS
 <Sep03-2015> <15:20:15>  >>>> SURPTS
 <Sep03-2015> <15:20:15>  >>>> CYCLE
 <Sep03-2015> <15:20:15>    1
 <Sep03-2015> <15:20:15>    2  ErrMat   0.13906747  MaxEl  0.09233639
 <Sep03-2015> <15:20:15>    3  ErrMat   0.07485046  MaxEl  0.05074235
 <Sep03-2015> <15:20:15>    4  ErrMat   0.05028805  MaxEl  0.01524812
 <Sep03-2015> <15:20:15>    5  ErrMat   0.00971729  MaxEl  0.00257068
 <Sep03-2015> <15:20:15>    6  ErrMat   0.00519850  MaxEl  0.00149567
 <Sep03-2015> <15:20:15>    7  ErrMat   0.00040673  MaxEl -0.00009832
 <Sep03-2015> <15:20:15>    8  ErrMat   0.00004441  MaxEl  0.00001189
 <Sep03-2015> <15:20:15>    9  ErrMat   0.00000355  MaxEl -0.00000143
 <Sep03-2015> <15:20:15>   10  ErrMat   0.00000039  MaxEl  0.00000012
 <Sep03-2015> <15:20:15>  SCF converged
 <Sep03-2015> <15:20:15>   11  ErrMat   0.00000003  MaxEl  0.00000001
 <Sep03-2015> <15:20:15>  >>>> TOTEN
 <Sep03-2015> <15:20:16>  >>>> POPAN
 <Sep03-2015> <15:20:16>  >>>> DEBYE
 <Sep03-2015> <15:20:16>  >>>> AMETS
 <Sep03-2015> <15:20:16>  >>>> ENGRAD
 <Sep03-2015> <15:20:16>  current energy                               -0.14345036 Hartree
 <Sep03-2015> <15:20:16>  energy change                      -0.00006242     0.00010000    T
 <Sep03-2015> <15:20:16>  constrained gradient max            0.00258636     0.00100000    F
 <Sep03-2015> <15:20:16>  constrained gradient rms            0.00149324     0.00066667    F
 <Sep03-2015> <15:20:16>  gradient max                        0.00258636
 <Sep03-2015> <15:20:16>  gradient rms                        0.00149324
 <Sep03-2015> <15:20:16>  cart. step max                      0.00622384     0.01000000    T
 <Sep03-2015> <15:20:16>  cart. step rms                      0.00254098     0.00666667    T
  Coordinates in Geometry Cycle 5
    Atom         X           Y           Z   (Angstrom)
    1.Ag        0.000000    0.000000   -0.190492
    2.H         0.000000    0.000000    1.431982
 <Sep03-2015> <15:20:16>  >>>> CORORT
 <Sep03-2015> <15:20:16>  >>>> FITINT
 <Sep03-2015> <15:20:16>  >>>> CLSMAT
 <Sep03-2015> <15:20:16>  >>>> ORTHON
 <Sep03-2015> <15:20:16>  >>>> GENPT
 <Sep03-2015> <15:20:16>  Acc.Num.Int.=   6.000
 <Sep03-2015> <15:20:16>  Block Length= 122
 <Sep03-2015> <15:20:16>  >>>> PTBAS
 <Sep03-2015> <15:20:16>  >>>> SURPTS
 <Sep03-2015> <15:20:16>  >>>> CYCLE
 <Sep03-2015> <15:20:16>    1
 <Sep03-2015> <15:20:16>    2  ErrMat   0.15002022  MaxEl  0.09823749
 <Sep03-2015> <15:20:16>    3  ErrMat   0.07771851  MaxEl  0.05345244
 <Sep03-2015> <15:20:16>    4  ErrMat   0.05586494  MaxEl  0.01657383
 <Sep03-2015> <15:20:16>    5  ErrMat   0.00837109  MaxEl  0.00224011
 <Sep03-2015> <15:20:16>    6  ErrMat   0.00524098  MaxEl  0.00151521
 <Sep03-2015> <15:20:16>    7  ErrMat   0.00035105  MaxEl -0.00008985
 <Sep03-2015> <15:20:16>    8  ErrMat   0.00003823  MaxEl  0.00001130
 <Sep03-2015> <15:20:17>    9  ErrMat   0.00000372  MaxEl -0.00000151
 <Sep03-2015> <15:20:17>   10  ErrMat   0.00000026  MaxEl  0.00000008
 <Sep03-2015> <15:20:17>  SCF converged
 <Sep03-2015> <15:20:17>   11  ErrMat   0.00000003  MaxEl -0.00000001
 <Sep03-2015> <15:20:17>  >>>> TOTEN
 <Sep03-2015> <15:20:17>  >>>> POPAN
 <Sep03-2015> <15:20:17>  >>>> DEBYE
 <Sep03-2015> <15:20:17>  >>>> AMETS
 <Sep03-2015> <15:20:17>  >>>> ENGRAD
 <Sep03-2015> <15:20:17>  current energy                               -0.14343828 Hartree
 <Sep03-2015> <15:20:17>  energy change                       0.00001208     0.00010000    T
 <Sep03-2015> <15:20:17>  constrained gradient max            0.00011911     0.00100000    T
 <Sep03-2015> <15:20:17>  constrained gradient rms            0.00006877     0.00066667    T
 <Sep03-2015> <15:20:17>  gradient max                        0.00011911
 <Sep03-2015> <15:20:17>  gradient rms                        0.00006877
 <Sep03-2015> <15:20:17>  cart. step max                      0.00027400     0.01000000    T
 <Sep03-2015> <15:20:17>  cart. step rms                      0.00011186     0.00666667    T
 <Sep03-2015> <15:20:17>  GEOMETRY CONVERGED
 <Sep03-2015> <15:20:17>  Calculating Energy Terms for Final Geometry
  Coordinates in Geometry Cycle 5
    Atom         X           Y           Z   (Angstrom)
    1.Ag        0.000000    0.000000   -0.190492
    2.H         0.000000    0.000000    1.431982
 <Sep03-2015> <15:20:17>  >>>> CORORT
 <Sep03-2015> <15:20:17>  >>>> FITINT
 <Sep03-2015> <15:20:17>  >>>> CLSMAT
 <Sep03-2015> <15:20:17>  >>>> ORTHON
 <Sep03-2015> <15:20:17>  >>>> GENPT
 <Sep03-2015> <15:20:17>  Acc.Num.Int.=   6.000
 <Sep03-2015> <15:20:17>  Block Length= 122
 <Sep03-2015> <15:20:17>  >>>> PTBAS
 <Sep03-2015> <15:20:17>  >>>> SURPTS
 <Sep03-2015> <15:20:17>  >>>> CYCLE
 <Sep03-2015> <15:20:17>    1
 <Sep03-2015> <15:20:17>    2  ErrMat   0.14712503  MaxEl  0.09683566
 <Sep03-2015> <15:20:17>    3  ErrMat   0.07686490  MaxEl  0.05276770
 <Sep03-2015> <15:20:17>    4  ErrMat   0.05500912  MaxEl  0.01641375
 <Sep03-2015> <15:20:18>    5  ErrMat   0.00856467  MaxEl  0.00229093
 <Sep03-2015> <15:20:18>    6  ErrMat   0.00521763  MaxEl  0.00150718
 <Sep03-2015> <15:20:18>    7  ErrMat   0.00036244  MaxEl -0.00009151
 <Sep03-2015> <15:20:18>    8  ErrMat   0.00003953  MaxEl  0.00001045
 <Sep03-2015> <15:20:18>    9  ErrMat   0.00000375  MaxEl -0.00000154
 <Sep03-2015> <15:20:18>   10  ErrMat   0.00000029  MaxEl  0.00000009
 <Sep03-2015> <15:20:18>   11  ErrMat   0.00000001  MaxEl  0.00000000
 <Sep03-2015> <15:20:18>  SCF converged
 <Sep03-2015> <15:20:18>   12  ErrMat   0.00000000  MaxEl  0.00000000
 <Sep03-2015> <15:20:18>  >>>> TOTEN
 <Sep03-2015> <15:20:18>  >>>> POPAN
 <Sep03-2015> <15:20:18>  >>>> DEBYE
 <Sep03-2015> <15:20:18>  >>>> AMETS
 <Sep03-2015> <15:20:18>  >>>> POPUL
 <Sep03-2015> <15:20:18>   Bond Energy          -0.14343828 a.u.
 <Sep03-2015> <15:20:18>   Bond Energy          -3.90315426 eV
 <Sep03-2015> <15:20:18>   Bond Energy         -90.01       kcal/mol
 <Sep03-2015> <15:20:18>  NORMAL TERMINATION
 <Sep03-2015> <15:20:18>  END
