
 *******************************************************************************
 *                                                                             *
 *  -------------------------------------                                      *
 *   Amsterdam Density Functional  (ADF)         2012.01   January 26, 2012    *
 *  -------------------------------------                                      *
 *                                               Build 201201262206            *
 *                                                                             *
 *                                                                             *
 *                            =====================                            *
 *                            |                   |                            *
 *                            |     D I R A C     |                            *
 *                            |                   |                            *
 *                            =====================                            *
 *                                                                             *
 *                                                                             *
 *   Online information and documentation:  http://www.scm.com                 *
 *   E-mail:  support@scm.com   info@scm.com                                   *
 *                                                                             *
 *   Scientific publications using ADF results must be properly referenced     *
 *   See the User Manuals (or the web site) for recommended citations          *
 *   The terms and conditions of the End User License Agreement apply to       *
 *   the use of ADF, http://www.scm.com/Sales/LicAgreement.html                *
 *                                                                             *
 *****************************  pentium64_linux  *******************************
 
 DIRAC 2012.01  RunTime: Sep25-2015 10:26:16  Nodes: 1  Procs: 1

 Temporary files are created in /tmp/2115682.1.batch.q/kid_0.99Nb85

1
 SILVER ATOM 3d CORE RELATIVISTIC, Point Nuc, A and c from li
 N J RN H ZN XION ANUC CLIGHT
 5000   15100.00000000197.36710137 47.00000000  0.00000000  106.905093  0.1370360E+03
  PH   PHI     EPS        DEL        DELRVR
  0.30  0.30     2500.00  0.00001000  0.00001000
 IDIRC  NC1  NDEBU NPRIN  IPUN IRCOR IWCOR
   1   300     0     0     0     0     9
   XALPHA      XLATTER      RNUC
  0.70000000  0.00000000  0.00000000 Point Charge
   XN   XL   XJ      XE          XZ      XDELL
  1.0  0.0  0.5   -1500.000       2.000     0.00000
  2.0  0.0  0.5    -325.000       2.000     0.00000
  2.0  1.0  0.5    -325.000       2.000     0.00000
  2.0  1.0  1.5    -325.000       4.000     0.00000
  3.0  0.0  0.5     -70.000       2.000     0.00000
  3.0  1.0  0.5     -70.000       2.000     0.00000
  3.0  1.0  1.5     -70.000       4.000     0.00000
  3.0  2.0  1.5     -60.000       4.000     0.00000
  3.0  2.0  2.5     -60.000       6.000     0.00000
  4.0  0.0  0.5     -10.000       2.000     0.00000
  4.0  1.0  0.5     -10.000       2.000     0.00000
  4.0  1.0  1.5     -10.000       4.000     0.00000
  4.0  2.0  1.5      -1.000       4.000     0.00000
  4.0  2.0  2.5      -1.000       6.000     0.00000
  5.0  0.0  0.5      -0.500       1.000     0.00000
 ICORP=  0  NPCL=  0  DEMP=0.00  PEPS=0.000000
 R(1)=  0.1000000E-08 D=  0.1005080E+01 RNUC=  0.0000000E+00
 converged at cycle   37  DENSITY AVERAGING    0.1536
  MAXIMUM ERROR IN R.V(R) IS   0.73266205E-05
 Q,EY,EV,EZ,ESUM,ETOT,RHO  0.470000E+02 -0.196167E+03 -0.876390E+04 -0.128962E+05 -0.319969E+04 -0.531488E+04  0.734901E-11


 DIRAC CALCULATION
1                    SILVER ATOM 3d CORE RELATIVISTIC, Point Nuc, A and c from libtc


 EXCHANGE COEFFICIENT=  0.7000000           TAIL CORRECTION=  0.           NUCLEAR RADIUS=  0.000E+00
0                       ORBITAL    N    L    J     ELECTRONS     EIGENVALUE                DELTA OF EIGENV.

                          1S1/2  1.0  0.0  0.5     2.000       -0.9298445E+03                 0.2273091E-04
                          2S1/2  2.0  0.0  0.5     2.000       -0.1369628E+03                 0.3639498E-04
                          2P1/2  2.0  1.0  0.5     2.000       -0.1273849E+03                 0.3693015E-04
                          2P3/2  2.0  1.0  1.5     4.000       -0.1209397E+03                 0.3702741E-04
                          3S1/2  3.0  0.0  0.5     2.000       -0.2508734E+02                 0.1716513E-04
                          3P1/2  3.0  1.0  0.5     2.000       -0.2126622E+02                 0.1799299E-04
                          3P3/2  3.0  1.0  1.5     4.000       -0.2012758E+02                 0.1718269E-04
                          3D3/2  3.0  2.0  1.5     4.000       -0.1333155E+02                 0.2053383E-04
                          3D5/2  3.0  2.0  2.5     6.000       -0.1310170E+02                 0.2025648E-04
                          4S1/2  4.0  0.0  0.5     2.000       -0.3467319E+01                 0.6825765E-06
                          4P1/2  4.0  1.0  0.5     2.000       -0.2259901E+01                 0.4193829E-06
                          4P3/2  4.0  1.0  1.5     4.000       -0.2069785E+01                 0.2705207E-06
                          4D3/2  4.0  2.0  1.5     4.000       -0.2640772E+00                 0.3034642E-06
                          4D5/2  4.0  2.0  2.5     6.000       -0.2433402E+00                 0.3285318E-06
                          5S1/2  5.0  0.0  0.5     1.000       -0.1450750E+00                 0.2931479E-06


                                        NUCLEAR CHARGE=   47.000000
                            INTEGRAL OF CHARGE DENSITY=   47.000000
                           SUM OF THE ORBITAL ENERGIES=  -3199.6921
                                          TOTAL ENERGY=  -5314.8812
                                        KINETIC ENERGY=   5564.2055
                             NUCLEAR ATTRACTION ENERGY= -12896.1922
                             ELECTRON REPULSION ENERGY=   2164.2310
                                       EXCHANGE ENERGY=   -147.1255

 *******************************************************************************

                             D I R A C   E X I T
 NORMAL TERMINATION



 =================
 Timing Statistics
 =================
  
 Total Used :                     CPU=        0.58      System=        0.12     Elapsed=        0.83

 Calls  Section                     ( Mean, Percentage )
 ---------------------------------------------------------------------------------------------------
     2  ><      ................      0.00    0.00             0.00    0.00             0.00    0.00
     1  EXIT PROCEDURE .........      0.58  100.00             0.12  100.00             0.83  100.00


 Currently Open Files (EXIT00)
 ====================

 Unit    Access Format  Status   Type       Ident (file)
 -------------------------------------------------------
   3      SEQ    FORM   TRANSP  NORMAL      LOGFILE
                                          ( logfile )


 Buffered I/O statistics
 =======================
 Memory available:                    268435456
 Number of records fitting in memory:     64527
 Input : 100.0% of                            0  *4k bytes
 Output: 100.0% of                            0  *4k bytes
 Records from serial files evicted:           0
                    others evicted:           0
 Hash table lookups:          0 with          0 conflicts (100.00%)
(INPUT FILE)
Create Ag   file=/homes/cmaikens/adf2012.01/atomicdata/ZORA/TZP/Ag.3d
XC
GGA Becke Perdew
End
relativistic ZORA
Corepotentials t12.rel
End Input

 *******************************************************************************
 *                                                                             *
 *  -------------------------------------                                      *
 *   Amsterdam Density Functional  (ADF)         2012.01   January 26, 2012    *
 *  -------------------------------------                                      *
 *                                               Build 201201262307            *
 *                                                                             *
 *                                                                             *
 *                              =================                              *
 *                              |               |                              *
 *                              |     A D F     |                              *
 *                              |               |                              *
 *                              =================                              *
 *                                                                             *
 *                                                                             *
 *   Online information and documentation:  http://www.scm.com                 *
 *   E-mail:  support@scm.com   info@scm.com                                   *
 *                                                                             *
 *   Scientific publications using ADF results must be properly referenced     *
 *   See the User Manuals (or the web site) for recommended citations          *
 *   The terms and conditions of the End User License Agreement apply to       *
 *   the use of ADF, http://www.scm.com/Sales/LicAgreement.html                *
 *                                                                             *
 **********************  pentium64_linux / platform_mpi  ***********************
 
 ADF 2012.01  RunTime: Sep25-2015 10:26:17  Nodes: 1  Procs: 1

 Temporary files are created in /tmp/2115682.1.batch.q/kid_0.RK2Fw9

 Silver (TZP, 3d frozen)



 ===========================
 A T T A C H E D   F I L E S
 ===========================
  
 CREATE - Data File:    /homes/cmaikens/adf2012.01/atomicdata/ZORA/TZP/Ag.3d
                        Silver (TZP, 3d frozen)
 Core Potentials:
         file : t12.rel



 ===============================
 M O D E L   P A R A M E T E R S
 ===============================
  
 DENSITY FUNCTIONAL POTENTIAL (scf)
    LDA:                               VWN                                      
    Gradient Corrections:              Becke88 Perdew86                        == Not Default ==

 SPIN  (restricted / unrestr.)
    Molecule:                          Restricted                               

 OTHER ASPECTS
    Relativistic Corrections:          scalar (ZORA,SAPA)                       *** SPECIAL ***

    Nuclear Charge Density Model:      Point Charge Nuclei                                                                                                                                                                                     
    Core Treatment:                    Frozen Orbital(s)                        

    Electric Field:                    ---                                      

    Hyperfine or Zeeman Interaction:   ---                                      



 =====================================
 S Y M M E T R Y ,   E L E C T R O N S
 =====================================
  
 Symmetry: ATOM

 Irreducible Representations, including subspecies
 -------------------------------------------------
 S
 P:x  P:y  P:z
 D:z2  D:x2-y2  D:xy  D:xz  D:yz
 F:z3  F:z  F:xyz  F:z2x  F:z2y  F:x  F:y


 Configuration of Valence Electrons
 ==================================

          Occupation Numbers
          -------------------------------------------------
 S        2 1
 P        6
 D        10
 F        0
          -------------------------------------------------

 Total:   19

 Net Charge: 0 (Nuclei minus Electrons)

 Preset values for MO occupations will be applied through SCF cycle no. 1000000
 Thereafter, the program will assign electrons to MOs that are spatially
 similar to the occupied MOs in a "reference" cycle ("KeepOrbitals").
 The reference cycle is always the PREVIOUS cycle: it will evolve with
 the SCF procedure.



 ================================
 (Slater-type)  F U N C T I O N S  ***  (Basis and Fit)  ***
 ================================
  

 Atom Type    1  (Ag)
 ==============

 Valence Basis Sets:  18
 -----------------------
   1 S   30.800000
   2 S   20.300000
   3 S    9.550000
   2 P   21.100000
   3 P   10.100000
   3 D   11.650000
   4 S    6.350000
   4 S    4.050000
   5 S    2.600000
   5 S    1.550000
   5 S    0.950000
   4 P    6.150000
   4 P    4.150000
   4 P    2.900000
   4 D    4.750000
   4 D    2.600000
   4 D    1.380000
   5 P    1.550000

 Frozen Core Shells
 ------------------
    S:  3
    P:  2
    D:  1

 Charge Fitting Sets (for the computation of the Coulomb Potential):  51
 -----------------------------------------------------------------------
   1 S   61.600000
   1 S   36.350000
   2 S   39.760000
   3 S   38.850000
   3 S   27.540000
   4 S   25.820000
   4 S   19.060000
   5 S   17.540000
   5 S   13.330000
   6 S   12.140000
   6 S    9.440000
   7 S    8.550000
   7 S    6.760000
   8 S    6.110000
   8 S    4.900000
   8 S    3.930000
   9 S    3.550000
   9 S    2.880000
   9 S    2.340000
   9 S    1.900000
   2 P   51.900000
   3 P   41.280000
   4 P   32.450000
   5 P   25.520000
   6 P   20.150000
   6 P   13.650000
   7 P   10.840000
   7 P    7.550000
   8 P    6.030000
   8 P    4.290000
   9 P    3.450000
   9 P    2.500000
   3 D   42.450000
   4 D   30.180000
   5 D   21.700000
   6 D   15.790000
   6 D    9.890000
   7 D    7.280000
   7 D    4.710000
   8 D    3.510000
   8 D    2.330000
   4 F   32.800000
   5 F   21.490000
   6 F   14.360000
   6 F    8.280000
   7 F    5.640000
   7 F    3.380000
   5 G   23.300000
   6 G   11.600000
   7 G    6.010000
   7 G    2.760000


 BAS: List of all Elementary Cartesian Basis Functions
 =====================================================

 The numbering in the list below (to the right of the function characteristics) is referred
 to in print-outs of MO eigenvectors and Mulliken populations in the BAS representation
 (as contrasted to the SFO representation).

 Notes:
 1. The functions are characterized by a polynomial prefactor (powers of x,y,z and r) and
    an exponential decay factor alpha.
 2. Since the basis sets are specific for an atom TYPE, the individual functions occur on
    all atoms of that type.
 3. The word 'Core' in the left margin signals that it is a Core Function (CF) : not a
    degree of freedom in the valence set, but only used to ensure orthogonalization of
    the other valence basis functions on the frozen Core Orbitals.


 (power of) X  Y  Z  R     Alpha  on Atom
            ==========     =====     ==========

 Ag                                   1
                                  ---------------------------------------------------------------------------
    Core    0  0  0  0    30.800      1
    Core    0  0  0  1    20.300      2
    Core    0  0  0  2     9.550      3
    Core    1  0  0  0    21.100      4
    Core    0  1  0  0    21.100      5
    Core    0  0  1  0    21.100      6
    Core    1  0  0  1    10.100      7
    Core    0  1  0  1    10.100      8
    Core    0  0  1  1    10.100      9
    Core    2  0  0  0    11.650     10
    Core    1  1  0  0    11.650     11
    Core    1  0  1  0    11.650     12
    Core    0  2  0  0    11.650     13
    Core    0  1  1  0    11.650     14
    Core    0  0  2  0    11.650     15
            0  0  0  3     6.350     16
            0  0  0  3     4.050     17
            0  0  0  4     2.600     18
            0  0  0  4     1.550     19
            0  0  0  4     0.950     20
            1  0  0  2     6.150     21
            0  1  0  2     6.150     22
            0  0  1  2     6.150     23
            1  0  0  2     4.150     24
            0  1  0  2     4.150     25
            0  0  1  2     4.150     26
            1  0  0  2     2.900     27
            0  1  0  2     2.900     28
            0  0  1  2     2.900     29
            2  0  0  1     4.750     30
            1  1  0  1     4.750     31
            1  0  1  1     4.750     32
            0  2  0  1     4.750     33
            0  1  1  1     4.750     34
            0  0  2  1     4.750     35
            2  0  0  1     2.600     36
            1  1  0  1     2.600     37
            1  0  1  1     2.600     38
            0  2  0  1     2.600     39
            0  1  1  1     2.600     40
            0  0  2  1     2.600     41
            2  0  0  1     1.380     42
            1  1  0  1     1.380     43
            1  0  1  1     1.380     44
            0  2  0  1     1.380     45
            0  1  1  1     1.380     46
            0  0  2  1     1.380     47
            1  0  0  3     1.550     48
            0  1  0  3     1.550     49
            0  0  1  3     1.550     50

 Total number of charge fitting functions (nprimf)       230
 Total number of Cartesian basis functions (naos)         50
 Total number of Cartesian core functions  (ncos)         15



 BAS: List of all Elementary Cartesian Basis Functions
 =====================================================

 The numbering in the list below (to the right of the function characteristics) is referred
 to in print-outs of MO eigenvectors and Mulliken populations in the BAS representation
 (as contrasted to the SFO representation).

 Notes:
 1. The functions are characterized by a polynomial prefactor (powers of x,y,z and r) and
    an exponential decay factor alpha.
 2. Since the basis sets are specific for an atom TYPE, the individual functions occur on
    all atoms of that type.
 3. The word 'Core' in the left margin signals that it is a Core Function (CF) : not a
    degree of freedom in the valence set, but only used to ensure orthogonalization of
    the other valence basis functions on the frozen Core Orbitals.


 (power of) X  Y  Z  R     Alpha  on Atom
            ==========     =====     ==========

 Ag                                   1
                                  ---------------------------------------------------------------------------
    Core    0  0  0  0    30.800      1
    Core    0  0  0  1    20.300      2
    Core    0  0  0  2     9.550      3
    Core    1  0  0  0    21.100      4
    Core    0  1  0  0    21.100      5
    Core    0  0  1  0    21.100      6
    Core    1  0  0  1    10.100      7
    Core    0  1  0  1    10.100      8
    Core    0  0  1  1    10.100      9
    Core    2  0  0  0    11.650     10
    Core    1  1  0  0    11.650     11
    Core    1  0  1  0    11.650     12
    Core    0  2  0  0    11.650     13
    Core    0  1  1  0    11.650     14
    Core    0  0  2  0    11.650     15
            0  0  0  3     6.350     16
            0  0  0  3     4.050     17
            0  0  0  4     2.600     18
            0  0  0  4     1.550     19
            0  0  0  4     0.950     20
            1  0  0  2     6.150     21
            0  1  0  2     6.150     22
            0  0  1  2     6.150     23
            1  0  0  2     4.150     24
            0  1  0  2     4.150     25
            0  0  1  2     4.150     26
            1  0  0  2     2.900     27
            0  1  0  2     2.900     28
            0  0  1  2     2.900     29
            2  0  0  1     4.750     30
            1  1  0  1     4.750     31
            1  0  1  1     4.750     32
            0  2  0  1     4.750     33
            0  1  1  1     4.750     34
            0  0  2  1     4.750     35
            2  0  0  1     2.600     36
            1  1  0  1     2.600     37
            1  0  1  1     2.600     38
            0  2  0  1     2.600     39
            0  1  1  1     2.600     40
            0  0  2  1     2.600     41
            2  0  0  1     1.380     42
            1  1  0  1     1.380     43
            1  0  1  1     1.380     44
            0  2  0  1     1.380     45
            0  1  1  1     1.380     46
            0  0  2  1     1.380     47
            1  0  0  3     1.550     48
            0  1  0  3     1.550     49
            0  0  1  3     1.550     50
1
 ***************************************************************************************************



                                              ***********************
                                              *  T E C H N I C A L  *
                                              ***********************
  



 =============================================================
 P A R A L L E L I Z A T I O N  and  V E C T O R I Z A T I O N
 =============================================================
  
 Nr of parallel processes:                                1
 Maximum vector length in NumInt loops:                 128



 ===============
 I O  vs.  C P U  ***  (store numerical data on disk or recalculate)  ***
 ===============
  
 Basis functions:   recalculate when needed
 Fit functions:     recalculate when needed

 IO buffersize (Mb):                                    256.000000



 =====================
 S C F   U P D A T E S
 =====================
  
 Max. nr. of cycles:                               100
 Convergence criterion:                              0.0000000100
   secondary criterion:                              0.0000000100

 Mix parameter (when DIIS does not apply):           0.2000000000
 Special mix parameter for the first cycle:          1.0000000000


 DIIS (Direct Inversion in Iteration Space)
    Replace damping when SCF Error is below:         0.5000000000
    Apply anyway after SCF cycle:
                                                     5
    (Max.) nr. of expansion vectors:                10

    Upperbound on expansion coefficients:            5.0000000000
    (when exceeded, IterationSpace is re-built)
    2nd Upperbound on coefficients:                 25.0000000000
    (when exceeded, simple damping will be used)
 Automatic ElectronSmearing (in case of problematic SCF convergence) disabled



 =================
 P R E C I S I O N  ***  (General: NumInt, NeglectFunctionTails, ...)  ***
 =================
  

 NumInt:           Target precision:                10.0000000000
 -------           Initial precision:               10.0000000000
                   Min. precision (optimization):   10.0000000000

 Neglect Functions:          Basis functions:        0.1000000000E-11
 ------------------          Fit functions:          0.1000000000E-11



 ===========================
 L I N E A R   S C A L I N G
 ===========================
  

 Cut-off radii density fit:                        0.1000000000E-13
 Overlap cut-off criterion AO matrix elements:     0.1000000000E-11
 Cut-offs for Coulomb potential and fitted density:0.1000000000E-13
 Cut-off criterion for Coulomb multipole terms:    0.1000000000E-13
 Progressive Convergence parameter:                 0.000000000    
1
 ***************************************************************************************************



                                            ***************************
                                            *  C O M P U T A T I O N  *
                                            ***************************
  

 Number of elements of the density matrix on this node (used, total):      1275      1275



 ====================================================
 Numerical Integration : Voronoi Polyhedra (Te Velde)  ***  (parameters, tests)  ***
 ====================================================
  
 General Accuracy Parameter :                         10.00

 Symmetry used in the points section:  ATOM  


 Summary of the Symmetry Unique Points:
 --------------------------------------
    Nr. of used Symmetry Operators                     1

    Points in the Atomic Spheres                      94
    Points in the Atomic Polyhedra                     0
    Points in the Outer Region                         0
    ----------------------------------------------------
    Total                                             94

    Sum of Weights                                114259.875357

 Total nr. of points:         94
 Nr. of blocks:                1
 Block length:                94
 Nr. of dummy points:          0


 Test of Precision of the Numerical Integration Grid
 ===================================================

 Integral of the Total Core Density:                  27.99999992831499
 Relative Error:                                      -2.560E-09



 =====
 S C F
 =====
  

 CYCLE    1
 orbitals (Q,E):
 ---------------
 S :1...5            ( 2.00    -3.4932)  ( 1.00    -0.1678)  ( 0.00     0.0495)  ( 0.00     0.5481)
                     ( 0.00     4.1890)
 P :1...4            ( 6.00    -2.1702)  ( 0.00     0.0010)  ( 0.00     0.9464)  ( 0.00     6.3133)
 D :1...3            (10.00    -0.2809)  ( 0.00     0.2936)  ( 0.00     2.2251)

 CYCLE    2
 d-Pmat  mean:  0.22E-02
 imax=     33: -0.66E-02
 orbitals (Q,E):
 ---------------
 S :1...3            ( 2.00    -3.4789)  ( 1.00    -0.1655)  ( 0.00     0.0499)
 P :1...2            ( 6.00    -2.1568)  ( 0.00     0.0025)
 D :1...2            (10.00    -0.2711)  ( 0.00     0.2958)

 CYCLE    3
 d-Pmat  mean:  0.14E-02
 imax=     35:  0.43E-02
 orbitals (Q,E):
 ---------------
 S :1...3            ( 2.00    -3.4878)  ( 1.00    -0.1670)  ( 0.00     0.0494)
 P :1...2            ( 6.00    -2.1651)  ( 0.00     0.0014)
 D :1...2            (10.00    -0.2771)  ( 0.00     0.2943)

 CYCLE    4
 d-Pmat  mean:  0.75E-04
 imax=     18:  0.23E-03
 orbitals (Q,E):
 ---------------
 S :1...3            ( 2.00    -3.4884)  ( 1.00    -0.1672)  ( 0.00     0.0493)
 P :1...2            ( 6.00    -2.1657)  ( 0.00     0.0012)
 D :1...2            (10.00    -0.2776)  ( 0.00     0.2941)

 CYCLE    5
 d-Pmat  mean:  0.28E-05
 imax=     18: -0.99E-05
 orbitals (Q,E):
 ---------------
 S :1...3            ( 2.00    -3.4884)  ( 1.00    -0.1672)  ( 0.00     0.0493)
 P :1...2            ( 6.00    -2.1657)  ( 0.00     0.0012)
 D :1...2            (10.00    -0.2775)  ( 0.00     0.2941)

 CYCLE    6
 d-Pmat  mean:  0.17E-07
 imax=     19: -0.13E-06
 orbitals (Q,E):
 ---------------
 S :1...3            ( 2.00    -3.4884)  ( 1.00    -0.1672)  ( 0.00     0.0493)
 P :1...2            ( 6.00    -2.1657)  ( 0.00     0.0012)
 D :1...2            (10.00    -0.2775)  ( 0.00     0.2941)

 CYCLE    7
 d-Pmat  mean:  0.11E-08
 imax=     19: -0.11E-07
 orbitals (Q,E):
 ---------------
 S :1...3            ( 2.00    -3.4884)  ( 1.00    -0.1672)  ( 0.00     0.0493)
 P :1...2            ( 6.00    -2.1657)  ( 0.00     0.0012)
 D :1...2            (10.00    -0.2775)  ( 0.00     0.2941)

 SCF CONVERGED

 CYCLE    8
1
 ***************************************************************************************************



                                                *******************
                                                *  R E S U L T S  *
                                                *******************
  
 *** Setting up for NEW gradients in focky
 *** Using FIT density in focky
 XCFun disabled
 XCFun disabled
 XCFun disabled

 Scaled ZORA Orbital Energies, per Irrep and Spin:
 =================================================
                        Occup              E (au)              E (eV)       Diff (eV) with prev. cycle
                        -----      --------------------        ------       --------------------------
 S
               1        2.000     -0.34883937327255E+01       -94.924               1.01E-09
               2        1.000     -0.16721774376307E+00        -4.550               8.48E-10
               3        0.000      0.49292090859751E-01         1.341
               4        0.000      0.54900113066203E+00        14.939
               5        0.000      0.41923034015691E+01       114.078
 P
               1        6.000     -0.21656535049739E+01       -58.930               1.04E-09
               2        0.000      0.12312059741376E-02         0.034
               3        0.000      0.94805018589873E+00        25.798
               4        0.000      0.63168566721937E+01       171.890
 D
               1       10.000     -0.27753746737237E+00        -7.552               1.07E-09
               2        0.000      0.29412398526233E+00         8.004
               3        0.000      0.22279871540449E+01        60.627


 Partially Occupied:
               2 S                -0.16721774376307E+00
  
 HOMO :        1 D                -0.27753746737237E+00
 LUMO :        2 P                 0.12312059741376E-02
  


 Orbital Energies, all Irreps
 ========================================

 Irrep        no.  (spin)   Occup              E (au)                E (eV)
 ---------------------------------------------------------------------------
 S             1             2.00       -0.34883937327255E+01       -94.9240
 P             1             6.00       -0.21656535049739E+01       -58.9304
 D             1            10.00       -0.27753746737237E+00        -7.5522
 S             2             1.00       -0.16721774376307E+00        -4.5502
 P             2             0.00        0.12312059741376E-02         0.0335
 S             3             0.00        0.49292090859751E-01         1.3413
 D             2             0.00        0.29412398526233E+00         8.0035
 S             4             0.00        0.54900113066203E+00        14.9391
 P             3             0.00        0.94805018589873E+00        25.7978
 D             3             0.00        0.22279871540449E+01        60.6266
 S             5             0.00        0.41923034015691E+01       114.0784
 P             4             0.00        0.63168566721937E+01       171.8904


 Scaled ZORA Orbital Energies of the Core Orbitals:
 ==================================================

 (Note that the atoms are grouped by atomtype, see the labels, and may hence NOT be in input order)

 AtomType  Orbital  Atom                   E (au)                        E (eV)
 --------  -------  ----           --------------------        ----------------
 Ag          1S        1          -0.93051917515589E+03              -25320.715
             2S        1          -0.13700540306455E+03               -3728.107
             3S        1          -0.25114511935225E+02                -683.401
             2P        1          -0.12286153862350E+03               -3343.233
             3P        1          -0.20498924322833E+02                -557.804
             3D        1          -0.13198949396919E+02                -359.162



 =======================================
 M U L L I K E N   P O P U L A T I O N S
 =======================================
  
 The survey below gives for each atom:
 a) the total charge (Z minus electrons)
 b) the net spin polarization (nr of electrons spin-A minus spin-B)
 c) for each spin the atomic electron valence density (integrated) per L-value.

 Atom              Charge    Spin density          S         P         D         F
 ----              ------    ------------       ------    ------    ------    ------
 1 Ag              0.0000                       3.0000    6.0000   10.0000    0.0000

 Populations of individual BAS functions
 ----------------------------------------
 1 Ag          -0.0085  0.0044 -0.0712  0.0003  0.0003  0.0003  0.0270  0.0270  0.0270  0.0387
                0.0580  0.0580  0.0387  0.0580  0.0387  1.3215  0.7613  0.3605  0.5376  0.0943
                0.7450  0.7450  0.7450  1.0681  1.0681  1.0681  0.1587  0.1587  0.1587  0.5515
                0.8273  0.8273  0.5515  0.8273  0.5515  0.6409  0.9614  0.9614  0.6409  0.9614
                0.6409  0.1022  0.1533  0.1533  0.1022  0.1533  0.1022  0.0010  0.0010  0.0010

 Gross Charges per Atom (Z minus electrons)
 ==========================================
             0.0000
 Net Total:  0.00000000


 Atom-Atom Population Matrix (off-diagonal elements not doubled)
 ===============================================================

     1 :    19.0000



 =============
 Dipole Moment  ***  (Debye)  ***
 =============
  
 Vector   :         0.00000000      0.00000000      0.00000000
 Magnitude:         0.00000000

 This molecular dipole moment is calculated with analytic integration



 =========================================
 Quadrupole Moment (Buckingham convention)  ***  (a.u.)  ***
 =========================================
  
      quad-xx        quad-xy        quad-xz        quad-yy        quad-yz        quad-zz
      0.00000000     0.00000000     0.00000000     0.00000000     0.00000000     0.00000000

 This molecular quadrupole moment is calculated with analytic integration



 ===============================================================================
 Electrostatic potential at the Nuclei due to valence electrons and other nuclei
 ===============================================================================
  
         Atom                  Potential
         ----                  ---------
     1)   Ag                 21.10983739
 
 
 ========================
 No memory problems found
 ========================
 
 Maximum number of active allocate calls:         391
 
 *******************************************************************************

                             A D F   E X I T
 NORMAL TERMINATION



 =================
 Timing Statistics
 =================
  
 Total Used :                     CPU=        0.26      System=        0.15     Elapsed=        0.96

 Calls  Section                     ( Mean, Percentage )
 ---------------------------------------------------------------------------------------------------
     3  ><      ................      0.00    0.00             0.00    0.00             0.00    0.28
     1  INIT    ................      0.01    3.85             0.00    0.00             0.56   58.49
     1  GEOMET  ................      0.00    0.00             0.12   80.00             0.12   12.09
     1  INPUTA  ................      0.00    0.00             0.00    0.00             0.00    0.22
     1  MAINSY  ................      0.02    7.69             0.00    0.00             0.02    2.12
     1  SYMFIT  ................      0.00    0.00             0.00    0.00             0.00    0.03
     1  CORORT  ................      0.00    0.00             0.00    0.00             0.00    0.06
     1  SYMORB  ................      0.01    3.85             0.00    0.00             0.00    0.08
     1  FITINT  ................      0.00    0.00             0.00    0.00             0.01    0.65
     1  CLSMAT  ................      0.00    0.00             0.00    0.00             0.00    0.04
     1  ORTHON  ................      0.00    0.00             0.00    0.00             0.00    0.15
     1  ETALOW  ................      0.00    0.00             0.00    0.00             0.00    0.06
     1  GENPT   ................      0.02    7.69             0.00    0.00             0.01    1.56
     1  PTBAS   ................      0.00    0.00             0.00    0.00             0.00    0.34
     8  FOCKY   ................      0.02   50.00             0.00   13.33             0.02   16.02
     8  FOCKTR  ................      0.00    0.00             0.00    0.00             0.00    0.28
     8  FOCKNM  ................      0.00    0.00             0.00    0.00             0.00    0.03
     8  SDIIS   ................      0.00    0.00             0.00    0.00             0.00    0.35
     8  EMERGE  ................      0.00   11.54             0.00    0.00             0.00    2.48
     1  COREPS  ................      0.01    3.85             0.01    6.67             0.01    1.49
     1  POPAN   ................      0.00    0.00             0.00    0.00             0.00    0.27
     1  DEBYE   ................      0.00    0.00             0.00    0.00             0.00    0.08
     1  QMPOT   ................      0.01    3.85             0.00    0.00             0.00    0.46
     1  EXIT PROCEDURE .........      0.02    7.69             0.00    0.00             0.02    2.37


 Currently Open Files (EXIT00)
 ====================

 Unit    Access Format  Status   Type       Ident (file)
 -------------------------------------------------------
   3      SEQ    FORM   TRANSP  NORMAL      LOGFILE
                                          ( logfile )


 Buffered I/O statistics
 =======================
 Memory available:                    268435456
 Number of records fitting in memory:     64527
 Input :   1.3% of                         3830  *4k bytes
 Output:  10.3% of                         1959  *4k bytes
 Records from serial files evicted:           0
                    others evicted:           0
 Hash table lookups:      15695 with          0 conflicts (  0.00%)

 ***************************************************************************************************
 (LOGFILE)
 <Sep25-2015> <10:26:16>  DIRAC 2012.01  RunTime: Sep25-2015 10:26:16  Nodes: 1  Procs: 1
 <Sep25-2015> <10:26:16>  NORMAL TERMINATION
 <Sep25-2015> <10:26:16>  END
 <Sep25-2015> <10:26:17>  ADF 2012.01  RunTime: Sep25-2015 10:26:17  Nodes: 1  Procs: 1
 <Sep25-2015> <10:26:17>  Silver (TZP, 3d frozen)
 <Sep25-2015> <10:26:17>  RunType   : CREATE
 <Sep25-2015> <10:26:17>  Net Charge: 0 (Nuclei minus Electrons)
 <Sep25-2015> <10:26:17>  Symmetry  : ATOM
 <Sep25-2015> <10:26:17>  >>>> CORORT
 <Sep25-2015> <10:26:17>  >>>> FITINT
 <Sep25-2015> <10:26:17>  >>>> CLSMAT
 <Sep25-2015> <10:26:17>  >>>> ORTHON
 <Sep25-2015> <10:26:17>  >>>> GENPT
 <Sep25-2015> <10:26:17>  Acc.Num.Int.=  10.000
 <Sep25-2015> <10:26:17>  Block Length=  94
 <Sep25-2015> <10:26:17>  >>>> PTBAS
 <Sep25-2015> <10:26:17>  >>>> CYCLE
 <Sep25-2015> <10:26:17>    1
 <Sep25-2015> <10:26:17>    2  ErrMat   0.02728591  MaxEl  0.00887264
 <Sep25-2015> <10:26:17>    3  ErrMat   0.05713964  MaxEl -0.01729688
 <Sep25-2015> <10:26:17>    4  ErrMat   0.00229105  MaxEl -0.00078765
 <Sep25-2015> <10:26:17>    5  ErrMat   0.00007667  MaxEl  0.00002781
 <Sep25-2015> <10:26:17>    6  ErrMat   0.00000030  MaxEl -0.00000012
 <Sep25-2015> <10:26:17>    7  ErrMat   0.00000001  MaxEl  0.00000000
 <Sep25-2015> <10:26:17>  SCF converged
 <Sep25-2015> <10:26:17>    8  ErrMat   0.00000000  MaxEl  0.00000000
 <Sep25-2015> <10:26:18>   Solutions with partially occupied orbitals may not be
 <Sep25-2015> <10:26:18>   lowest in energy. You might consider lowering the
 <Sep25-2015> <10:26:18>   symmetry in the input and explicitly specifying integer
 <Sep25-2015> <10:26:18>   occupations. In that case always check that you obtain
 <Sep25-2015> <10:26:18>   an aufbau solution.
 <Sep25-2015> <10:26:18>  >>>> POPAN
 <Sep25-2015> <10:26:18>  >>>> DEBYE
 <Sep25-2015> <10:26:18>  NORMAL TERMINATION
 <Sep25-2015> <10:26:18>  END

 *******************************************************************************
 *                                                                             *
 *  -------------------------------------                                      *
 *   Amsterdam Density Functional  (ADF)         2012.01   January 26, 2012    *
 *  -------------------------------------                                      *
 *                                               Build 201201262206            *
 *                                                                             *
 *                                                                             *
 *                            =====================                            *
 *                            |                   |                            *
 *                            |     D I R A C     |                            *
 *                            |                   |                            *
 *                            =====================                            *
 *                                                                             *
 *                                                                             *
 *   Online information and documentation:  http://www.scm.com                 *
 *   E-mail:  support@scm.com   info@scm.com                                   *
 *                                                                             *
 *   Scientific publications using ADF results must be properly referenced     *
 *   See the User Manuals (or the web site) for recommended citations          *
 *   The terms and conditions of the End User License Agreement apply to       *
 *   the use of ADF, http://www.scm.com/Sales/LicAgreement.html                *
 *                                                                             *
 *****************************  pentium64_linux  *******************************
 
 DIRAC 2012.01  RunTime: Sep25-2015 10:26:18  Nodes: 1  Procs: 1

 Temporary files are created in /tmp/2115682.1.batch.q/kid_0.kq6mQd

1
 HYDROGEN ATOM RELATIVISTIC, Point Nuc, A and c from libtc   
 N J RN H ZN XION ANUC CLIGHT
 5000    1100.00000000197.36710137  1.00000000  0.00000000    1.007825  0.1370360E+03
  PH   PHI     EPS        DEL        DELRVR
  0.30  0.30     2500.00  0.00001000  0.00001000
 IDIRC  NC1  NDEBU NPRIN  IPUN IRCOR IWCOR
   1   300     0     0     0     0     0
   XALPHA      XLATTER      RNUC
  0.70000000  0.00000000  0.00000000 Point Charge
   XN   XL   XJ      XE          XZ      XDELL
  1.0  0.0  0.5      -1.000       1.000     0.00000
 ICORP=  0  NPCL=  0  DEMP=0.00  PEPS=0.000000
 R(1)=  0.1000000E-08 D=  0.1005080E+01 RNUC=  0.0000000E+00
 converged at cycle   32  DENSITY AVERAGING    0.2400
  MAXIMUM ERROR IN R.V(R) IS   0.79874357E-05
 Q,EY,EV,EZ,ESUM,ETOT,RHO  0.100000E+01 -0.266614E+00 -0.619969E+00 -0.910779E+00 -0.203940E+00 -0.415998E+00  0.337036E-17


 DIRAC CALCULATION
1                    HYDROGEN ATOM RELATIVISTIC, Point Nuc, A and c from libtc


 EXCHANGE COEFFICIENT=  0.7000000           TAIL CORRECTION=  0.           NUCLEAR RADIUS=  0.000E+00
0                       ORBITAL    N    L    J     ELECTRONS     EIGENVALUE                DELTA OF EIGENV.

                          1S1/2  1.0  0.0  0.5     1.000       -0.2039397E+00                 0.2720093E-06


                                        NUCLEAR CHARGE=    1.000000
                            INTEGRAL OF CHARGE DENSITY=    1.000000
                           SUM OF THE ORBITAL ENERGIES=     -0.2039
                                          TOTAL ENERGY=     -0.4160
                                        KINETIC ENERGY=      0.4160
                             NUCLEAR ATTRACTION ENERGY=     -0.9108
                             ELECTRON REPULSION ENERGY=      0.2787
                                       EXCHANGE ENERGY=     -0.2000

 *******************************************************************************

                             D I R A C   E X I T
 NORMAL TERMINATION



 =================
 Timing Statistics
 =================
  
 Total Used :                     CPU=        0.12      System=        0.10     Elapsed=        0.35

 Calls  Section                     ( Mean, Percentage )
 ---------------------------------------------------------------------------------------------------
     2  ><      ................      0.00    0.00             0.00    0.00             0.00    0.01
     1  EXIT PROCEDURE .........      0.12  100.00             0.10  100.00             0.35   99.99


 Currently Open Files (EXIT00)
 ====================

 Unit    Access Format  Status   Type       Ident (file)
 -------------------------------------------------------
   3      SEQ    FORM   TRANSP  NORMAL      LOGFILE
                                          ( logfile )


 Buffered I/O statistics
 =======================
 Memory available:                    268435456
 Number of records fitting in memory:     64527
 Input : 100.0% of                            0  *4k bytes
 Output: 100.0% of                            0  *4k bytes
 Records from serial files evicted:           0
                    others evicted:           0
 Hash table lookups:          0 with          0 conflicts (100.00%)
(INPUT FILE)
Create H   file=/homes/cmaikens/adf2012.01/atomicdata/ZORA/TZP/H
XC
GGA Becke Perdew
End
relativistic ZORA
Corepotentials t12.rel
End Input

 *******************************************************************************
 *                                                                             *
 *  -------------------------------------                                      *
 *   Amsterdam Density Functional  (ADF)         2012.01   January 26, 2012    *
 *  -------------------------------------                                      *
 *                                               Build 201201262307            *
 *                                                                             *
 *                                                                             *
 *                              =================                              *
 *                              |               |                              *
 *                              |     A D F     |                              *
 *                              |               |                              *
 *                              =================                              *
 *                                                                             *
 *                                                                             *
 *   Online information and documentation:  http://www.scm.com                 *
 *   E-mail:  support@scm.com   info@scm.com                                   *
 *                                                                             *
 *   Scientific publications using ADF results must be properly referenced     *
 *   See the User Manuals (or the web site) for recommended citations          *
 *   The terms and conditions of the End User License Agreement apply to       *
 *   the use of ADF, http://www.scm.com/Sales/LicAgreement.html                *
 *                                                                             *
 **********************  pentium64_linux / platform_mpi  ***********************
 
 ADF 2012.01  RunTime: Sep25-2015 10:26:18  Nodes: 1  Procs: 1

 Temporary files are created in /tmp/2115682.1.batch.q/kid_0.R65uSK

 Hydrogen (TZP)



 ===========================
 A T T A C H E D   F I L E S
 ===========================
  
 CREATE - Data File:    /homes/cmaikens/adf2012.01/atomicdata/ZORA/TZP/H
                        Hydrogen (TZP)
 Core Potentials:
         file : t12.rel



 ===============================
 M O D E L   P A R A M E T E R S
 ===============================
  
 DENSITY FUNCTIONAL POTENTIAL (scf)
    LDA:                               VWN                                      
    Gradient Corrections:              Becke88 Perdew86                        == Not Default ==

 SPIN  (restricted / unrestr.)
    Molecule:                          Restricted                               

 OTHER ASPECTS
    Relativistic Corrections:          scalar (ZORA,SAPA)                       *** SPECIAL ***

    Nuclear Charge Density Model:      Point Charge Nuclei                                                                                                                                                                                     
    Core Treatment:                    Frozen Orbital(s)                        

    Electric Field:                    ---                                      

    Hyperfine or Zeeman Interaction:   ---                                      



 =====================================
 S Y M M E T R Y ,   E L E C T R O N S
 =====================================
  
 Symmetry: ATOM

 Irreducible Representations, including subspecies
 -------------------------------------------------
 S
 P:x  P:y  P:z
 D:z2  D:x2-y2  D:xy  D:xz  D:yz
 F:z3  F:z  F:xyz  F:z2x  F:z2y  F:x  F:y


 Configuration of Valence Electrons
 ==================================

          Occupation Numbers
          -------------------------------------------------
 S        1
 P        0
 D        0
 F        0
          -------------------------------------------------

 Total:   1

 Net Charge: 0 (Nuclei minus Electrons)

 Preset values for MO occupations will be applied through SCF cycle no. 1000000
 Thereafter, the program will assign electrons to MOs that are spatially
 similar to the occupied MOs in a "reference" cycle ("KeepOrbitals").
 The reference cycle is always the PREVIOUS cycle: it will evolve with
 the SCF procedure.



 ================================
 (Slater-type)  F U N C T I O N S  ***  (Basis and Fit)  ***
 ================================
  

 Atom Type    1  (H)
 ==============

 Valence Basis Sets:   4
 -----------------------
   1 S    0.690000
   1 S    0.920000
   1 S    1.580000
   2 P    1.250000

 Charge Fitting Sets (for the computation of the Coulomb Potential):  11
 -----------------------------------------------------------------------
   1 S    3.160000
   1 S    2.090000
   1 S    1.380000
   2 S    1.500000
   2 P    4.000000
   2 P    2.650000
   2 P    1.750000
   3 D    4.000000
   3 D    2.500000
   4 F    3.000000
   5 G    4.000000


 BAS: List of all Elementary Cartesian Basis Functions
 =====================================================

 The numbering in the list below (to the right of the function characteristics) is referred
 to in print-outs of MO eigenvectors and Mulliken populations in the BAS representation
 (as contrasted to the SFO representation).

 Notes:
 1. The functions are characterized by a polynomial prefactor (powers of x,y,z and r) and
    an exponential decay factor alpha.
 2. Since the basis sets are specific for an atom TYPE, the individual functions occur on
    all atoms of that type.
 3. The word 'Core' in the left margin signals that it is a Core Function (CF) : not a
    degree of freedom in the valence set, but only used to ensure orthogonalization of
    the other valence basis functions on the frozen Core Orbitals.


 (power of) X  Y  Z  R     Alpha  on Atom
            ==========     =====     ==========

 H                                    1
                                  ---------------------------------------------------------------------------
            0  0  0  0     0.690      1
            0  0  0  0     0.920      2
            0  0  0  0     1.580      3
            1  0  0  0     1.250      4
            0  1  0  0     1.250      5
            0  0  1  0     1.250      6

 Total number of charge fitting functions (nprimf)        50
 Total number of Cartesian basis functions (naos)          6
 Total number of Cartesian core functions  (ncos)          0



 BAS: List of all Elementary Cartesian Basis Functions
 =====================================================

 The numbering in the list below (to the right of the function characteristics) is referred
 to in print-outs of MO eigenvectors and Mulliken populations in the BAS representation
 (as contrasted to the SFO representation).

 Notes:
 1. The functions are characterized by a polynomial prefactor (powers of x,y,z and r) and
    an exponential decay factor alpha.
 2. Since the basis sets are specific for an atom TYPE, the individual functions occur on
    all atoms of that type.
 3. The word 'Core' in the left margin signals that it is a Core Function (CF) : not a
    degree of freedom in the valence set, but only used to ensure orthogonalization of
    the other valence basis functions on the frozen Core Orbitals.


 (power of) X  Y  Z  R     Alpha  on Atom
            ==========     =====     ==========

 H                                    1
                                  ---------------------------------------------------------------------------
            0  0  0  0     0.690      1
            0  0  0  0     0.920      2
            0  0  0  0     1.580      3
            1  0  0  0     1.250      4
            0  1  0  0     1.250      5
            0  0  1  0     1.250      6
1
 ***************************************************************************************************



                                              ***********************
                                              *  T E C H N I C A L  *
                                              ***********************
  



 =============================================================
 P A R A L L E L I Z A T I O N  and  V E C T O R I Z A T I O N
 =============================================================
  
 Nr of parallel processes:                                1
 Maximum vector length in NumInt loops:                 128



 ===============
 I O  vs.  C P U  ***  (store numerical data on disk or recalculate)  ***
 ===============
  
 Basis functions:   recalculate when needed
 Fit functions:     recalculate when needed

 IO buffersize (Mb):                                    256.000000



 =====================
 S C F   U P D A T E S
 =====================
  
 Max. nr. of cycles:                               100
 Convergence criterion:                              0.0000000100
   secondary criterion:                              0.0000000100

 Mix parameter (when DIIS does not apply):           0.2000000000
 Special mix parameter for the first cycle:          1.0000000000


 DIIS (Direct Inversion in Iteration Space)
    Replace damping when SCF Error is below:         0.5000000000
    Apply anyway after SCF cycle:
                                                     5
    (Max.) nr. of expansion vectors:                10

    Upperbound on expansion coefficients:            5.0000000000
    (when exceeded, IterationSpace is re-built)
    2nd Upperbound on coefficients:                 25.0000000000
    (when exceeded, simple damping will be used)
 Automatic ElectronSmearing (in case of problematic SCF convergence) disabled



 =================
 P R E C I S I O N  ***  (General: NumInt, NeglectFunctionTails, ...)  ***
 =================
  

 NumInt:           Target precision:                10.0000000000
 -------           Initial precision:               10.0000000000
                   Min. precision (optimization):   10.0000000000

 Neglect Functions:          Basis functions:        0.1000000000E-11
 ------------------          Fit functions:          0.1000000000E-11



 ===========================
 L I N E A R   S C A L I N G
 ===========================
  

 Cut-off radii density fit:                        0.1000000000E-13
 Overlap cut-off criterion AO matrix elements:     0.1000000000E-11
 Cut-offs for Coulomb potential and fitted density:0.1000000000E-13
 Cut-off criterion for Coulomb multipole terms:    0.1000000000E-13
 Progressive Convergence parameter:                 0.000000000    
1
 ***************************************************************************************************



                                            ***************************
                                            *  C O M P U T A T I O N  *
                                            ***************************
  

 Number of elements of the density matrix on this node (used, total):        21        21



 ====================================================
 Numerical Integration : Voronoi Polyhedra (Te Velde)  ***  (parameters, tests)  ***
 ====================================================
  
 General Accuracy Parameter :                         10.00

 Symmetry used in the points section:  ATOM  


 Summary of the Symmetry Unique Points:
 --------------------------------------
    Nr. of used Symmetry Operators                     1

    Points in the Atomic Spheres                      35
    Points in the Atomic Polyhedra                     0
    Points in the Outer Region                         0
    ----------------------------------------------------
    Total                                             35

    Sum of Weights                                 33854.777883

 Total nr. of points:         35
 Nr. of blocks:                1
 Block length:                35
 Nr. of dummy points:          0


 Test of Precision of the Numerical Integration Grid
 ===================================================

 Integral of the Total Core Density:                   0.00000000000000



 =====
 S C F
 =====
  

 CYCLE    1
 orbitals (Q,E):
 ---------------
 S :1...3            ( 1.00    -0.2497)  ( 0.00     0.0898)  ( 0.00     1.5086)
 P :1...1            ( 0.00     0.3944)

 CYCLE    2
 d-Pmat  mean:  0.67E-02
 imax=      2: -0.32E-01
 orbitals (Q,E):
 ---------------
 S :1...2            ( 1.00    -0.2425)  ( 0.00     0.0938)
 P :1...1            ( 0.00     0.4004)

 CYCLE    3
 d-Pmat  mean:  0.92E-03
 imax=      2:  0.43E-02
 orbitals (Q,E):
 ---------------
 S :1...2            ( 1.00    -0.2436)  ( 0.00     0.0931)
 P :1...1            ( 0.00     0.3994)

 CYCLE    4
 d-Pmat  mean:  0.23E-05
 imax=      2:  0.70E-05
 orbitals (Q,E):
 ---------------
 S :1...2            ( 1.00    -0.2436)  ( 0.00     0.0931)
 P :1...1            ( 0.00     0.3994)

 CYCLE    5
 d-Pmat  mean:  0.33E-07
 imax=      2:  0.16E-06
 orbitals (Q,E):
 ---------------
 S :1...2            ( 1.00    -0.2436)  ( 0.00     0.0931)
 P :1...1            ( 0.00     0.3994)

 SCF CONVERGED

 CYCLE    6
1
 ***************************************************************************************************



                                                *******************
                                                *  R E S U L T S  *
                                                *******************
  
 *** Setting up for NEW gradients in focky
 *** Using FIT density in focky
 XCFun disabled
 XCFun disabled
 XCFun disabled

 Scaled ZORA Orbital Energies, per Irrep and Spin:
 =================================================
                        Occup              E (au)              E (eV)       Diff (eV) with prev. cycle
                        -----      --------------------        ------       --------------------------
 S
               1        1.000     -0.24363084608098E+00        -6.630               7.44E-12
               2        0.000      0.93092450943701E-01         2.533
               3        0.000      0.15150131697268E+01        41.226
 P
               1        0.000      0.39943374979256E+00        10.869


 Partially Occupied:
               1 S                -0.24363084608098E+00
  
 LUMO :        2 S                 0.93092450943701E-01
  


 Orbital Energies, all Irreps
 ========================================

 Irrep        no.  (spin)   Occup              E (au)                E (eV)
 ---------------------------------------------------------------------------
 S             1             1.00       -0.24363084608098E+00        -6.6295
 S             2             0.00        0.93092450943701E-01         2.5332
 P             1             0.00        0.39943374979256E+00        10.8691
 S             3             0.00        0.15150131697268E+01        41.2256


 Scaled ZORA Orbital Energies of the Core Orbitals:
 ==================================================

 (Note that the atoms are grouped by atomtype, see the labels, and may hence NOT be in input order)

 AtomType  Orbital  Atom                   E (au)                        E (eV)
 --------  -------  ----           --------------------        ----------------



 =======================================
 M U L L I K E N   P O P U L A T I O N S
 =======================================
  
 The survey below gives for each atom:
 a) the total charge (Z minus electrons)
 b) the net spin polarization (nr of electrons spin-A minus spin-B)
 c) for each spin the atomic electron valence density (integrated) per L-value.

 Atom              Charge    Spin density          S         P         D         F
 ----              ------    ------------       ------    ------    ------    ------
 1 H               0.0000                       1.0000    0.0000    0.0000    0.0000

 Populations of individual BAS functions
 ----------------------------------------
 1 H            0.1849  0.7118  0.1033  0.0000  0.0000  0.0000

 Gross Charges per Atom (Z minus electrons)
 ==========================================
             0.0000
 Net Total:  0.00000000


 Atom-Atom Population Matrix (off-diagonal elements not doubled)
 ===============================================================

     1 :     1.0000



 =============
 Dipole Moment  ***  (Debye)  ***
 =============
  
 Vector   :         0.00000000      0.00000000      0.00000000
 Magnitude:         0.00000000

 This molecular dipole moment is calculated with analytic integration



 =========================================
 Quadrupole Moment (Buckingham convention)  ***  (a.u.)  ***
 =========================================
  
      quad-xx        quad-xy        quad-xz        quad-yy        quad-yz        quad-zz
      0.00000000     0.00000000     0.00000000     0.00000000     0.00000000     0.00000000

 This molecular quadrupole moment is calculated with analytic integration



 ===============================================================================
 Electrostatic potential at the Nuclei due to valence electrons and other nuclei
 ===============================================================================
  
         Atom                  Potential
         ----                  ---------
     1)   H                   0.94545402
 
 
 ========================
 No memory problems found
 ========================
 
 Maximum number of active allocate calls:         308
 
 *******************************************************************************

                             A D F   E X I T
 NORMAL TERMINATION



 =================
 Timing Statistics
 =================
  
 Total Used :                     CPU=        0.15      System=        0.15     Elapsed=        0.50

 Calls  Section                     ( Mean, Percentage )
 ---------------------------------------------------------------------------------------------------
     3  ><      ................      0.00    0.00             0.00    0.00             0.00    0.72
     1  INIT    ................      0.01    6.67             0.01    6.67             0.23   45.32
     1  GEOMET  ................      0.01    6.67             0.11   73.33             0.12   23.68
     1  INPUTA  ................      0.00    0.00             0.00    0.00             0.00    0.47
     1  MAINSY  ................      0.00    0.00             0.01    6.67             0.01    1.25
     1  SYMFIT  ................      0.00    0.00             0.00    0.00             0.00    0.07
     1  CORORT  ................      0.00    0.00             0.00    0.00             0.00    0.06
     1  SYMORB  ................      0.00    0.00             0.00    0.00             0.00    0.12
     1  FITINT  ................      0.00    0.00             0.00    0.00             0.00    0.85
     1  CLSMAT  ................      0.00    0.00             0.00    0.00             0.00    0.07
     1  ORTHON  ................      0.00    0.00             0.01    6.67             0.00    0.23
     1  ETALOW  ................      0.00    0.00             0.00    0.00             0.00    0.09
     1  GENPT   ................      0.00    0.00             0.00    0.00             0.01    1.38
     1  PTBAS   ................      0.00    0.00             0.00    0.00             0.00    0.48
     6  FOCKY   ................      0.01   53.33             0.00    0.00             0.01   15.75
     6  FOCKTR  ................      0.00    0.00             0.00    0.00             0.00    0.35
     6  FOCKNM  ................      0.00    0.00             0.00    0.00             0.00    0.05
     6  SDIIS   ................      0.00    6.67             0.00    0.00             0.00    0.54
     6  EMERGE  ................      0.00    6.67             0.00    6.67             0.00    2.47
     1  COREPS  ................      0.00    0.00             0.00    0.00             0.00    0.64
     1  POPAN   ................      0.00    0.00             0.00    0.00             0.00    0.41
     1  DEBYE   ................      0.00    0.00             0.00    0.00             0.00    0.09
     1  QMPOT   ................      0.00    0.00             0.00    0.00             0.00    0.46
     1  EXIT PROCEDURE .........      0.03   20.00             0.00    0.00             0.02    4.46


 Currently Open Files (EXIT00)
 ====================

 Unit    Access Format  Status   Type       Ident (file)
 -------------------------------------------------------
   3      SEQ    FORM   TRANSP  NORMAL      LOGFILE
                                          ( logfile )


 Buffered I/O statistics
 =======================
 Memory available:                    268435456
 Number of records fitting in memory:     64527
 Input :   2.1% of                         2027  *4k bytes
 Output:  12.8% of                         1349  *4k bytes
 Records from serial files evicted:           0
                    others evicted:           0
 Hash table lookups:       9130 with          0 conflicts (  0.00%)

 ***************************************************************************************************
 (LOGFILE)
 <Sep25-2015> <10:26:16>  DIRAC 2012.01  RunTime: Sep25-2015 10:26:16  Nodes: 1  Procs: 1
 <Sep25-2015> <10:26:16>  NORMAL TERMINATION
 <Sep25-2015> <10:26:16>  END
 <Sep25-2015> <10:26:17>  ADF 2012.01  RunTime: Sep25-2015 10:26:17  Nodes: 1  Procs: 1
 <Sep25-2015> <10:26:17>  Silver (TZP, 3d frozen)
 <Sep25-2015> <10:26:17>  RunType   : CREATE
 <Sep25-2015> <10:26:17>  Net Charge: 0 (Nuclei minus Electrons)
 <Sep25-2015> <10:26:17>  Symmetry  : ATOM
 <Sep25-2015> <10:26:17>  >>>> CORORT
 <Sep25-2015> <10:26:17>  >>>> FITINT
 <Sep25-2015> <10:26:17>  >>>> CLSMAT
 <Sep25-2015> <10:26:17>  >>>> ORTHON
 <Sep25-2015> <10:26:17>  >>>> GENPT
 <Sep25-2015> <10:26:17>  Acc.Num.Int.=  10.000
 <Sep25-2015> <10:26:17>  Block Length=  94
 <Sep25-2015> <10:26:17>  >>>> PTBAS
 <Sep25-2015> <10:26:17>  >>>> CYCLE
 <Sep25-2015> <10:26:17>    1
 <Sep25-2015> <10:26:17>    2  ErrMat   0.02728591  MaxEl  0.00887264
 <Sep25-2015> <10:26:17>    3  ErrMat   0.05713964  MaxEl -0.01729688
 <Sep25-2015> <10:26:17>    4  ErrMat   0.00229105  MaxEl -0.00078765
 <Sep25-2015> <10:26:17>    5  ErrMat   0.00007667  MaxEl  0.00002781
 <Sep25-2015> <10:26:17>    6  ErrMat   0.00000030  MaxEl -0.00000012
 <Sep25-2015> <10:26:17>    7  ErrMat   0.00000001  MaxEl  0.00000000
 <Sep25-2015> <10:26:17>  SCF converged
 <Sep25-2015> <10:26:17>    8  ErrMat   0.00000000  MaxEl  0.00000000
 <Sep25-2015> <10:26:18>   Solutions with partially occupied orbitals may not be
 <Sep25-2015> <10:26:18>   lowest in energy. You might consider lowering the
 <Sep25-2015> <10:26:18>   symmetry in the input and explicitly specifying integer
 <Sep25-2015> <10:26:18>   occupations. In that case always check that you obtain
 <Sep25-2015> <10:26:18>   an aufbau solution.
 <Sep25-2015> <10:26:18>  >>>> POPAN
 <Sep25-2015> <10:26:18>  >>>> DEBYE
 <Sep25-2015> <10:26:18>  NORMAL TERMINATION
 <Sep25-2015> <10:26:18>  END
 <Sep25-2015> <10:26:18>  DIRAC 2012.01  RunTime: Sep25-2015 10:26:18  Nodes: 1  Procs: 1
 <Sep25-2015> <10:26:18>  NORMAL TERMINATION
 <Sep25-2015> <10:26:18>  END
 <Sep25-2015> <10:26:18>  ADF 2012.01  RunTime: Sep25-2015 10:26:18  Nodes: 1  Procs: 1
 <Sep25-2015> <10:26:18>  Hydrogen (TZP)
 <Sep25-2015> <10:26:19>  RunType   : CREATE
 <Sep25-2015> <10:26:19>  Net Charge: 0 (Nuclei minus Electrons)
 <Sep25-2015> <10:26:19>  Symmetry  : ATOM
 <Sep25-2015> <10:26:19>  >>>> CORORT
 <Sep25-2015> <10:26:19>  >>>> FITINT
 <Sep25-2015> <10:26:19>  >>>> CLSMAT
 <Sep25-2015> <10:26:19>  >>>> ORTHON
 <Sep25-2015> <10:26:19>  >>>> GENPT
 <Sep25-2015> <10:26:19>  Acc.Num.Int.=  10.000
 <Sep25-2015> <10:26:19>  Block Length=  35
 <Sep25-2015> <10:26:19>  >>>> PTBAS
 <Sep25-2015> <10:26:19>  >>>> CYCLE
 <Sep25-2015> <10:26:19>    1
 <Sep25-2015> <10:26:19>    2  ErrMat   0.00258453  MaxEl -0.00253172
 <Sep25-2015> <10:26:19>    3  ErrMat   0.00050241  MaxEl  0.00048214
 <Sep25-2015> <10:26:19>    4  ErrMat   0.00000638  MaxEl  0.00000533
 <Sep25-2015> <10:26:19>    5  ErrMat   0.00000001  MaxEl -0.00000001
 <Sep25-2015> <10:26:19>  SCF converged
 <Sep25-2015> <10:26:19>    6  ErrMat   0.00000000  MaxEl  0.00000000
 <Sep25-2015> <10:26:19>   Solutions with partially occupied orbitals may not be
 <Sep25-2015> <10:26:19>   lowest in energy. You might consider lowering the
 <Sep25-2015> <10:26:19>   symmetry in the input and explicitly specifying integer
 <Sep25-2015> <10:26:19>   occupations. In that case always check that you obtain
 <Sep25-2015> <10:26:19>   an aufbau solution.
 <Sep25-2015> <10:26:19>  >>>> POPAN
 <Sep25-2015> <10:26:19>  >>>> DEBYE
 <Sep25-2015> <10:26:19>  NORMAL TERMINATION
 <Sep25-2015> <10:26:19>  END

 *******************************************************************************
 *                                                                             *
 *  -------------------------------------                                      *
 *   Amsterdam Density Functional  (ADF)         2012.01   January 26, 2012    *
 *  -------------------------------------                                      *
 *                                               Build 201201262206            *
 *                                                                             *
 *                                                                             *
 *                            =====================                            *
 *                            |                   |                            *
 *                            |     D I R A C     |                            *
 *                            |                   |                            *
 *                            =====================                            *
 *                                                                             *
 *                                                                             *
 *   Online information and documentation:  http://www.scm.com                 *
 *   E-mail:  support@scm.com   info@scm.com                                   *
 *                                                                             *
 *   Scientific publications using ADF results must be properly referenced     *
 *   See the User Manuals (or the web site) for recommended citations          *
 *   The terms and conditions of the End User License Agreement apply to       *
 *   the use of ADF, http://www.scm.com/Sales/LicAgreement.html                *
 *                                                                             *
 *****************************  pentium64_linux  *******************************
 
 DIRAC 2012.01  RunTime: Sep25-2015 10:26:19  Nodes: 1  Procs: 1

 Temporary files are created in /tmp/2115682.1.batch.q/kid_0.Sc3snp

1
 CARBON ATOM 1s CORE RELATIVISTIC, Point Nuc, A and c from li
 N J RN H ZN XION ANUC CLIGHT
 5000    4100.00000000197.36710137  6.00000000  0.00000000   12.000000  0.1370360E+03
  PH   PHI     EPS        DEL        DELRVR
  0.30  0.30     2500.00  0.00001000  0.00001000
 IDIRC  NC1  NDEBU NPRIN  IPUN IRCOR IWCOR
   1   300     0     0     0     0     1
   XALPHA      XLATTER      RNUC
  0.70000000  0.00000000  0.00000000 Point Charge
   XN   XL   XJ      XE          XZ      XDELL
  1.0  0.0  0.5      -5.000       2.000     0.00000
  2.0  0.0  0.5      -1.000       2.000     0.00000
  2.0  1.0  0.5      -1.000       2.000     0.00000
  2.0  1.0  1.5      -1.000       0.000     0.00000
 ICORP=  0  NPCL=  0  DEMP=0.00  PEPS=0.000000
 R(1)=  0.1000000E-08 D=  0.1005080E+01 RNUC=  0.0000000E+00
 converged at cycle   26  DENSITY AVERAGING    0.3000
  MAXIMUM ERROR IN R.V(R) IS   0.55010513E-05
 Q,EY,EV,EZ,ESUM,ETOT,RHO  0.600000E+01 -0.610129E+01 -0.585189E+02 -0.876464E+02 -0.211985E+02 -0.372876E+02  0.164808E-14


 DIRAC CALCULATION
1                    CARBON ATOM 1s CORE RELATIVISTIC, Point Nuc, A and c from libtc


 EXCHANGE COEFFICIENT=  0.7000000           TAIL CORRECTION=  0.           NUCLEAR RADIUS=  0.000E+00
0                       ORBITAL    N    L    J     ELECTRONS     EIGENVALUE                DELTA OF EIGENV.

                          1S1/2  1.0  0.0  0.5     2.000       -0.9959611E+01                 0.1355092E-04
                          2S1/2  2.0  0.0  0.5     2.000       -0.4708542E+00                 0.1106918E-05
                          2P1/2  2.0  1.0  0.5     2.000       -0.1687896E+00                 0.8770186E-06
                          2P3/2  2.0  1.0  1.5     0.000       -0.1684646E+00                 0.8770830E-06


                                        NUCLEAR CHARGE=    6.000000
                            INTEGRAL OF CHARGE DENSITY=    6.000000
                           SUM OF THE ORBITAL ENERGIES=    -21.1985
                                          TOTAL ENERGY=    -37.2876
                                        KINETIC ENERGY=     37.3204
                             NUCLEAR ATTRACTION ENERGY=    -87.6464
                             ELECTRON REPULSION ENERGY=     17.6144
                                       EXCHANGE ENERGY=     -4.5760

 *******************************************************************************

                             D I R A C   E X I T
 NORMAL TERMINATION



 =================
 Timing Statistics
 =================
  
 Total Used :                     CPU=        0.19      System=        0.11     Elapsed=        0.31

 Calls  Section                     ( Mean, Percentage )
 ---------------------------------------------------------------------------------------------------
     2  ><      ................      0.00    0.00             0.00    0.00             0.00    0.01
     1  EXIT PROCEDURE .........      0.19  100.00             0.11  100.00             0.31   99.99


 Currently Open Files (EXIT00)
 ====================

 Unit    Access Format  Status   Type       Ident (file)
 -------------------------------------------------------
   3      SEQ    FORM   TRANSP  NORMAL      LOGFILE
                                          ( logfile )


 Buffered I/O statistics
 =======================
 Memory available:                    268435456
 Number of records fitting in memory:     64527
 Input : 100.0% of                            0  *4k bytes
 Output: 100.0% of                            0  *4k bytes
 Records from serial files evicted:           0
                    others evicted:           0
 Hash table lookups:          0 with          0 conflicts (100.00%)
(INPUT FILE)
Create C   file=/homes/cmaikens/adf2012.01/atomicdata/ZORA/TZP/C.1s
XC
GGA Becke Perdew
End
relativistic ZORA
Corepotentials t12.rel
End Input

 *******************************************************************************
 *                                                                             *
 *  -------------------------------------                                      *
 *   Amsterdam Density Functional  (ADF)         2012.01   January 26, 2012    *
 *  -------------------------------------                                      *
 *                                               Build 201201262307            *
 *                                                                             *
 *                                                                             *
 *                              =================                              *
 *                              |               |                              *
 *                              |     A D F     |                              *
 *                              |               |                              *
 *                              =================                              *
 *                                                                             *
 *                                                                             *
 *   Online information and documentation:  http://www.scm.com                 *
 *   E-mail:  support@scm.com   info@scm.com                                   *
 *                                                                             *
 *   Scientific publications using ADF results must be properly referenced     *
 *   See the User Manuals (or the web site) for recommended citations          *
 *   The terms and conditions of the End User License Agreement apply to       *
 *   the use of ADF, http://www.scm.com/Sales/LicAgreement.html                *
 *                                                                             *
 **********************  pentium64_linux / platform_mpi  ***********************
 
 ADF 2012.01  RunTime: Sep25-2015 10:26:19  Nodes: 1  Procs: 1

 Temporary files are created in /tmp/2115682.1.batch.q/kid_0.81UHDX

 Carbon (TZP, 1s frozen)



 ===========================
 A T T A C H E D   F I L E S
 ===========================
  
 CREATE - Data File:    /homes/cmaikens/adf2012.01/atomicdata/ZORA/TZP/C.1s
                        Carbon (TZP, 1s frozen)
 Core Potentials:
         file : t12.rel



 ===============================
 M O D E L   P A R A M E T E R S
 ===============================
  
 DENSITY FUNCTIONAL POTENTIAL (scf)
    LDA:                               VWN                                      
    Gradient Corrections:              Becke88 Perdew86                        == Not Default ==

 SPIN  (restricted / unrestr.)
    Molecule:                          Restricted                               

 OTHER ASPECTS
    Relativistic Corrections:          scalar (ZORA,SAPA)                       *** SPECIAL ***

    Nuclear Charge Density Model:      Point Charge Nuclei                                                                                                                                                                                     
    Core Treatment:                    Frozen Orbital(s)                        

    Electric Field:                    ---                                      

    Hyperfine or Zeeman Interaction:   ---                                      



 =====================================
 S Y M M E T R Y ,   E L E C T R O N S
 =====================================
  
 Symmetry: ATOM

 Irreducible Representations, including subspecies
 -------------------------------------------------
 S
 P:x  P:y  P:z
 D:z2  D:x2-y2  D:xy  D:xz  D:yz
 F:z3  F:z  F:xyz  F:z2x  F:z2y  F:x  F:y


 Configuration of Valence Electrons
 ==================================

          Occupation Numbers
          -------------------------------------------------
 S        2
 P        2
 D        0
 F        0
          -------------------------------------------------

 Total:   4

 Net Charge: 0 (Nuclei minus Electrons)

 Preset values for MO occupations will be applied through SCF cycle no. 1000000
 Thereafter, the program will assign electrons to MOs that are spatially
 similar to the occupied MOs in a "reference" cycle ("KeepOrbitals").
 The reference cycle is always the PREVIOUS cycle: it will evolve with
 the SCF procedure.



 ================================
 (Slater-type)  F U N C T I O N S  ***  (Basis and Fit)  ***
 ================================
  

 Atom Type    1  (C)
 ==============

 Valence Basis Sets:   8
 -----------------------
   1 S    5.400000
   2 S    1.280000
   2 S    2.100000
   2 S    4.600000
   2 P    0.820000
   2 P    1.480000
   2 P    2.940000
   3 D    2.200000

 Frozen Core Shells
 ------------------
    S:  1

 Charge Fitting Sets (for the computation of the Coulomb Potential):  20
 -----------------------------------------------------------------------
   1 S   10.800000
   2 S   11.590000
   2 S    7.590000
[...]
    5.H         7.265347   -1.468677   -0.109263
    6.S         7.482853   -5.346102   -0.663759
    7.C         7.568272   -6.904627   -1.641030
    8.H         6.995458   -7.647358   -1.075348
    9.H         7.119093   -6.764848   -2.628723
   10.H         8.608636   -7.233142   -1.727476
   11.Ag        5.051507   -4.026964   -1.191172
   12.S         3.949283   -5.664623   -2.879100
   13.C         2.677194   -4.703973   -3.802668
   14.H         3.233469   -4.043047   -4.475867
   15.H         2.055853   -5.390122   -4.386408
   16.H         2.069685   -4.108742   -3.115500
   17.S         4.144611   -4.638667    1.289948
   18.C         2.311252   -4.783747    1.204955
   19.H         1.930362   -3.760794    1.113211
   20.H         2.009340   -5.369736    0.331766
   21.H         1.934043   -5.235473    2.127445
   22.H         4.407717   -5.970052    1.355386
   23.H         3.087574   -6.360520   -2.091719
   24.H         8.219419   -4.583797   -1.512866
 <Sep25-2015> <13:33:59>  >>>> CORORT
 <Sep25-2015> <13:33:59>  >>>> FITINT
 <Sep25-2015> <13:34:01>  >>>> CLSMAT
 <Sep25-2015> <13:34:01>  >>>> ORTHON
 <Sep25-2015> <13:34:01>  >>>> GENPT
 <Sep25-2015> <13:34:01>  Acc.Num.Int.=   6.000
 <Sep25-2015> <13:34:01>  Reusing previous cell geometry for gradient smoothing.
 <Sep25-2015> <13:34:02>  Block Length= 128
 <Sep25-2015> <13:34:02>  >>>> PTBAS
 <Sep25-2015> <13:34:12>  >>>> SURPTS
 <Sep25-2015> <13:34:12>  combining surface points...
 <Sep25-2015> <13:34:12>  combining surface points...
 <Sep25-2015> <13:34:12>  combining surface points...
 <Sep25-2015> <13:34:12>  >>>> CYCLE
 <Sep25-2015> <13:34:17>    1
 <Sep25-2015> <13:34:24>    2  ErrMat   0.23663910  MaxEl  0.07791507
 <Sep25-2015> <13:34:30>    3  ErrMat   0.11605319  MaxEl  0.03254440
 <Sep25-2015> <13:34:37>    4  ErrMat   0.05886497  MaxEl -0.01217226
 <Sep25-2015> <13:34:44>    5  ErrMat   0.03743728  MaxEl -0.00910502
 <Sep25-2015> <13:34:50>    6  ErrMat   0.01950858  MaxEl  0.00536733
 <Sep25-2015> <13:34:57>    7  ErrMat   0.00405406  MaxEl -0.00076254
 <Sep25-2015> <13:35:03>    8  ErrMat   0.00164171  MaxEl  0.00039116
 <Sep25-2015> <13:35:10>    9  ErrMat   0.00047019  MaxEl -0.00007009
 <Sep25-2015> <13:35:16>   10  ErrMat   0.00031822  MaxEl -0.00017312
 <Sep25-2015> <13:35:22>   11  ErrMat   0.00010635  MaxEl  0.00004595
 <Sep25-2015> <13:35:28>   12  ErrMat   0.00005330  MaxEl  0.00002687
 <Sep25-2015> <13:35:35>   13  ErrMat   0.00004556  MaxEl  0.00002263
 <Sep25-2015> <13:35:41>   14  ErrMat   0.00003056  MaxEl  0.00001814
 <Sep25-2015> <13:35:47>   15  ErrMat   0.00002338  MaxEl  0.00001383
 <Sep25-2015> <13:35:53>   16  ErrMat   0.00001185  MaxEl  0.00000700
 <Sep25-2015> <13:35:59>   17  ErrMat   0.00000565  MaxEl  0.00000333
 <Sep25-2015> <13:36:06>   18  ErrMat   0.00000275  MaxEl -0.00000160
 <Sep25-2015> <13:36:12>   19  ErrMat   0.00000083  MaxEl -0.00000048
 <Sep25-2015> <13:36:12>  SCF converged
 <Sep25-2015> <13:36:19>   20  ErrMat   0.00000014  MaxEl -0.00000006
 <Sep25-2015> <13:36:19>  >>>> TOTEN
 <Sep25-2015> <13:36:31>  >>>> POPAN
 <Sep25-2015> <13:36:31>  >>>> DEBYE
 <Sep25-2015> <13:36:31>  >>>> AMETS
 <Sep25-2015> <13:36:32>  >>>> ENGRAD
 <Sep25-2015> <13:37:06>  current energy                               -3.94059066 Hartree
 <Sep25-2015> <13:37:06>  energy change                       0.00007225     0.00010000    T
 <Sep25-2015> <13:37:06>  constrained gradient max            0.00051140     0.00100000    T
 <Sep25-2015> <13:37:06>  constrained gradient rms            0.00015374     0.00066667    T
 <Sep25-2015> <13:37:06>  gradient max                        0.00051140
 <Sep25-2015> <13:37:06>  gradient rms                        0.00015374
 <Sep25-2015> <13:37:06>  cart. step max                      0.01114408     0.01000000    F
 <Sep25-2015> <13:37:06>  cart. step rms                      0.00402649     0.00666667    T
  Coordinates in Geometry Cycle 65
    Atom         X           Y           Z   (Angstrom)
    1.S         5.364504   -1.629313   -1.677633
    2.C         6.289989   -0.979958   -0.200982
    3.H         6.451193    0.098294   -0.329946
    4.H         5.717569   -1.143713    0.719875
    5.H         7.264720   -1.472891   -0.103323
    6.S         7.480372   -5.346602   -0.662663
    7.C         7.569901   -6.901365   -1.645541
    8.H         6.992575   -7.645746   -1.086492
    9.H         7.127255   -6.756859   -2.635462
   10.H         8.610317   -7.230875   -1.726647
   11.Ag        5.050821   -4.026524   -1.191624
   12.S         3.947732   -5.665698   -2.878096
   13.C         2.677874   -4.708010   -3.807592
   14.H         3.235576   -4.049469   -4.481897
   15.H         2.057939   -5.396450   -4.390066
   16.H         2.068798   -4.110308   -3.123884
   17.S         4.145248   -4.635456    1.291283
   18.C         2.312385   -4.788736    1.206256
   19.H         1.927577   -3.767636    1.110042
   20.H         2.012977   -5.379643    0.335531
   21.H         1.936304   -5.237881    2.130500
   22.H         4.414023   -5.965506    1.360249
   23.H         3.083807   -6.358467   -2.090458
   24.H         8.221472   -4.580875   -1.504764
 <Sep25-2015> <13:37:06>  >>>> CORORT
 <Sep25-2015> <13:37:06>  >>>> FITINT
 <Sep25-2015> <13:37:08>  >>>> CLSMAT
 <Sep25-2015> <13:37:08>  >>>> ORTHON
 <Sep25-2015> <13:37:08>  >>>> GENPT
 <Sep25-2015> <13:37:08>  Acc.Num.Int.=   6.000
 <Sep25-2015> <13:37:08>  Reusing previous cell geometry for gradient smoothing.
 <Sep25-2015> <13:37:09>  Block Length= 128
 <Sep25-2015> <13:37:09>  >>>> PTBAS
 <Sep25-2015> <13:37:19>  >>>> SURPTS
 <Sep25-2015> <13:37:19>  combining surface points...
 <Sep25-2015> <13:37:19>  combining surface points...
 <Sep25-2015> <13:37:19>  combining surface points...
 <Sep25-2015> <13:37:19>  >>>> CYCLE
 <Sep25-2015> <13:37:24>    1
 <Sep25-2015> <13:37:30>    2  ErrMat   0.23708041  MaxEl  0.07839305
 <Sep25-2015> <13:37:37>    3  ErrMat   0.11622873  MaxEl  0.03273215
 <Sep25-2015> <13:37:43>    4  ErrMat   0.05960128  MaxEl -0.01225328
 <Sep25-2015> <13:37:49>    5  ErrMat   0.03817827  MaxEl -0.00940799
 <Sep25-2015> <13:37:56>    6  ErrMat   0.01940840  MaxEl  0.00532122
 <Sep25-2015> <13:38:02>    7  ErrMat   0.00408505  MaxEl -0.00074988
 <Sep25-2015> <13:38:08>    8  ErrMat   0.00163546  MaxEl  0.00037404
 <Sep25-2015> <13:38:14>    9  ErrMat   0.00047334  MaxEl -0.00007012
 <Sep25-2015> <13:38:21>   10  ErrMat   0.00017367  MaxEl -0.00006181
 <Sep25-2015> <13:38:27>   11  ErrMat   0.00008486  MaxEl  0.00004240
 <Sep25-2015> <13:38:33>   12  ErrMat   0.00003977  MaxEl  0.00001951
 <Sep25-2015> <13:38:39>   13  ErrMat   0.00001938  MaxEl -0.00000536
 <Sep25-2015> <13:38:46>   14  ErrMat   0.00000336  MaxEl  0.00000074
 <Sep25-2015> <13:38:46>  SCF converged
 <Sep25-2015> <13:38:52>   15  ErrMat   0.00000199  MaxEl  0.00000095
 <Sep25-2015> <13:38:53>  >>>> TOTEN
 <Sep25-2015> <13:39:06>  >>>> POPAN
 <Sep25-2015> <13:39:06>  >>>> DEBYE
 <Sep25-2015> <13:39:06>  >>>> AMETS
 <Sep25-2015> <13:39:06>  >>>> ENGRAD
 <Sep25-2015> <13:39:41>  current energy                               -3.94059872 Hartree
 <Sep25-2015> <13:39:41>  energy change                      -0.00000806     0.00010000    T
 <Sep25-2015> <13:39:41>  constrained gradient max            0.00044381     0.00100000    T
 <Sep25-2015> <13:39:41>  constrained gradient rms            0.00012542     0.00066667    T
 <Sep25-2015> <13:39:41>  gradient max                        0.00044381
 <Sep25-2015> <13:39:41>  gradient rms                        0.00012542
 <Sep25-2015> <13:39:41>  cart. step max                      0.02812233     0.01000000    F
 <Sep25-2015> <13:39:41>  cart. step rms                      0.00753637     0.00666667    F
  Coordinates in Geometry Cycle 66
    Atom         X           Y           Z   (Angstrom)
    1.S         5.368139   -1.630298   -1.680178
    2.C         6.289206   -0.979940   -0.200792
    3.H         6.450313    0.098219   -0.330329
    4.H         5.714324   -1.142964    0.718765
    5.H         7.264030   -1.472170   -0.099729
    6.S         7.476678   -5.349090   -0.654750
    7.C         7.582116   -6.894363   -1.650904
    8.H         6.997098   -7.644999   -1.108267
    9.H         7.154495   -6.740801   -2.646039
   10.H         8.623926   -7.221826   -1.719192
   11.Ag        5.051497   -4.027500   -1.193161
   12.S         3.941807   -5.664110   -2.878941
   13.C         2.672028   -4.705091   -3.806902
   14.H         3.229439   -4.047277   -4.481841
   15.H         2.050819   -5.393355   -4.388137
   16.H         2.064472   -4.106734   -3.122388
   17.S         4.145363   -4.631767    1.292166
   18.C         2.313254   -4.796577    1.208279
   19.H         1.922409   -3.777955    1.109705
   20.H         2.017029   -5.391480    0.339221
   21.H         1.940196   -5.245873    2.133732
   22.H         4.422810   -5.959713    1.365667
   23.H         3.077881   -6.355793   -2.090398
   24.H         8.230528   -4.573985   -1.476641
 <Sep25-2015> <13:39:41>  >>>> CORORT
 <Sep25-2015> <13:39:41>  >>>> FITINT
 <Sep25-2015> <13:39:42>  >>>> CLSMAT
 <Sep25-2015> <13:39:43>  >>>> ORTHON
 <Sep25-2015> <13:39:43>  >>>> GENPT
 <Sep25-2015> <13:39:43>  Acc.Num.Int.=   6.000
 <Sep25-2015> <13:39:43>  Reusing previous cell geometry for gradient smoothing.
 <Sep25-2015> <13:39:43>  Block Length= 128
 <Sep25-2015> <13:39:44>  >>>> PTBAS
 <Sep25-2015> <13:39:54>  >>>> SURPTS
 <Sep25-2015> <13:39:54>  combining surface points...
 <Sep25-2015> <13:39:54>  combining surface points...
 <Sep25-2015> <13:39:54>  combining surface points...
 <Sep25-2015> <13:39:54>  >>>> CYCLE
 <Sep25-2015> <13:39:59>    1
 <Sep25-2015> <13:40:05>    2  ErrMat   0.23859319  MaxEl  0.07883534
 <Sep25-2015> <13:40:11>    3  ErrMat   0.11692135  MaxEl  0.03285596
 <Sep25-2015> <13:40:17>    4  ErrMat   0.06023870  MaxEl -0.01216408
 <Sep25-2015> <13:40:24>    5  ErrMat   0.03864226  MaxEl -0.00955937
 <Sep25-2015> <13:40:30>    6  ErrMat   0.01937427  MaxEl  0.00529472
 <Sep25-2015> <13:40:37>    7  ErrMat   0.00415865  MaxEl -0.00077145
 <Sep25-2015> <13:40:43>    8  ErrMat   0.00165481  MaxEl  0.00037973
 <Sep25-2015> <13:40:50>    9  ErrMat   0.00104684  MaxEl -0.00050613
 <Sep25-2015> <13:40:56>   10  ErrMat   0.00037188  MaxEl  0.00015261
 <Sep25-2015> <13:41:02>   11  ErrMat   0.00018744  MaxEl  0.00009106
 <Sep25-2015> <13:41:08>   12  ErrMat   0.00015400  MaxEl  0.00008125
 <Sep25-2015> <13:41:15>   13  ErrMat   0.00011917  MaxEl  0.00006451
 <Sep25-2015> <13:41:21>   14  ErrMat   0.00009971  MaxEl  0.00005372
 <Sep25-2015> <13:41:27>   15  ErrMat   0.00006791  MaxEl  0.00003636
 <Sep25-2015> <13:41:34>   16  ErrMat   0.00003770  MaxEl  0.00001786
 <Sep25-2015> <13:41:40>   17  ErrMat   0.00006571  MaxEl  0.00003527
 <Sep25-2015> <13:41:47>   18  ErrMat   0.00005927  MaxEl  0.00003567
 <Sep25-2015> <13:41:53>   19  ErrMat   0.00005540  MaxEl  0.00003293
 <Sep25-2015> <13:42:00>   20  ErrMat   0.00005328  MaxEl  0.00003173
 <Sep25-2015> <13:42:06>   21  ErrMat   0.00005864  MaxEl  0.00003460
 <Sep25-2015> <13:42:12>   22  ErrMat   0.00001742  MaxEl -0.00000478
 <Sep25-2015> <13:42:18>   23  ErrMat   0.00000677  MaxEl  0.00000120
 <Sep25-2015> <13:42:24>   24  ErrMat   0.00000626  MaxEl -0.00000138
 <Sep25-2015> <13:42:31>   25  ErrMat   0.00000110  MaxEl  0.00000025
 <Sep25-2015> <13:42:31>  SCF converged
 <Sep25-2015> <13:42:38>   26  ErrMat   0.00000037  MaxEl -0.00000008
 <Sep25-2015> <13:42:38>  >>>> TOTEN
 <Sep25-2015> <13:42:51>  >>>> POPAN
 <Sep25-2015> <13:42:51>  >>>> DEBYE
 <Sep25-2015> <13:42:51>  >>>> AMETS
 <Sep25-2015> <13:42:51>  >>>> ENGRAD
 <Sep25-2015> <13:43:26>  current energy                               -3.94068116 Hartree
 <Sep25-2015> <13:43:26>  energy change                      -0.00008244     0.00010000    T
 <Sep25-2015> <13:43:26>  constrained gradient max            0.00044888     0.00100000    T
 <Sep25-2015> <13:43:26>  constrained gradient rms            0.00010408     0.00066667    T
 <Sep25-2015> <13:43:26>  gradient max                        0.00044888
 <Sep25-2015> <13:43:26>  gradient rms                        0.00010408
 <Sep25-2015> <13:43:26>  cart. step max                      0.05204116     0.01000000    F
 <Sep25-2015> <13:43:26>  cart. step rms                      0.01533239     0.00666667    F
  Coordinates in Geometry Cycle 67
    Atom         X           Y           Z   (Angstrom)
    1.S         5.376636   -1.632049   -1.682676
    2.C         6.294130   -0.985486   -0.199093
    3.H         6.458671    0.092387   -0.326842
    4.H         5.715829   -1.147868    0.718552
    5.H         7.267343   -1.480375   -0.094809
    6.S         7.470239   -5.352085   -0.643257
    7.C         7.607239   -6.876512   -1.667236
    8.H         7.009766   -7.639617   -1.156486
    9.H         7.206536   -6.703990   -2.670403
   10.H         8.651434   -7.199884   -1.713582
   11.Ag        5.052609   -4.028553   -1.195380
   12.S         3.929133   -5.664508   -2.874679
   13.C         2.662635   -4.704876   -3.805922
   14.H         3.222069   -4.053457   -4.485135
   15.H         2.037471   -5.393798   -4.382030
   16.H         2.058994   -4.100045   -3.123660
   17.S         4.141976   -4.622499    1.293203
   18.C         2.312322   -4.812530    1.203766
   19.H         1.908875   -3.799679    1.097779
   20.H         2.027356   -5.416352    0.337133
   21.H         1.941027   -5.261178    2.130395
   22.H         4.438566   -5.945624    1.379883
   23.H         3.062824   -6.347192   -2.080909
   24.H         8.244468   -4.558317   -1.427610
 <Sep25-2015> <13:43:26>  >>>> CORORT
 <Sep25-2015> <13:43:26>  >>>> FITINT
 <Sep25-2015> <13:43:28>  >>>> CLSMAT
 <Sep25-2015> <13:43:28>  >>>> ORTHON
 <Sep25-2015> <13:43:28>  >>>> GENPT
 <Sep25-2015> <13:43:28>  Acc.Num.Int.=   6.000
 <Sep25-2015> <13:43:29>  Block Length= 128
 <Sep25-2015> <13:43:30>  >>>> PTBAS
 <Sep25-2015> <13:43:41>  >>>> SURPTS
 <Sep25-2015> <13:43:41>  combining surface points...
 <Sep25-2015> <13:43:41>  combining surface points...
 <Sep25-2015> <13:43:41>  >>>> CYCLE
 <Sep25-2015> <13:43:46>    1
 <Sep25-2015> <13:43:52>    2  ErrMat   0.24147409  MaxEl  0.07901497
 <Sep25-2015> <13:43:58>    3  ErrMat   0.11820502  MaxEl  0.03278623
 <Sep25-2015> <13:44:04>    4  ErrMat   0.06103661  MaxEl -0.01179117
 <Sep25-2015> <13:44:10>    5  ErrMat   0.03883306  MaxEl -0.00957624
 <Sep25-2015> <13:44:16>    6  ErrMat   0.01944716  MaxEl  0.00530235
 <Sep25-2015> <13:44:23>    7  ErrMat   0.00431266  MaxEl -0.00078891
 <Sep25-2015> <13:44:29>    8  ErrMat   0.00188146  MaxEl -0.00052998
 <Sep25-2015> <13:44:35>    9  ErrMat   0.00058527  MaxEl  0.00025670
 <Sep25-2015> <13:44:41>   10  ErrMat   0.00026224  MaxEl  0.00013920
 <Sep25-2015> <13:44:48>   11  ErrMat   0.00017257  MaxEl  0.00008648
 <Sep25-2015> <13:44:54>   12  ErrMat   0.00006971  MaxEl -0.00002726
 <Sep25-2015> <13:45:00>   13  ErrMat   0.00004419  MaxEl  0.00002602
 <Sep25-2015> <13:45:07>   14  ErrMat   0.00000872  MaxEl  0.00000211
 <Sep25-2015> <13:45:13>   15  ErrMat   0.00000347  MaxEl -0.00000085
 <Sep25-2015> <13:45:13>  SCF converged
 <Sep25-2015> <13:45:19>   16  ErrMat   0.00000219  MaxEl  0.00000085
 <Sep25-2015> <13:45:19>  >>>> TOTEN
 <Sep25-2015> <13:45:32>  >>>> POPAN
 <Sep25-2015> <13:45:32>  >>>> DEBYE
 <Sep25-2015> <13:45:32>  >>>> AMETS
 <Sep25-2015> <13:45:32>  >>>> ENGRAD
 <Sep25-2015> <13:46:04>  current energy                               -3.94064625 Hartree
 <Sep25-2015> <13:46:04>  energy change                       0.00003491     0.00010000    T
 <Sep25-2015> <13:46:04>  constrained gradient max            0.00050145     0.00100000    T
 <Sep25-2015> <13:46:04>  constrained gradient rms            0.00018135     0.00066667    T
 <Sep25-2015> <13:46:04>  gradient max                        0.00050145
 <Sep25-2015> <13:46:04>  gradient rms                        0.00018135
 <Sep25-2015> <13:46:04>  cart. step max                      0.00905889     0.01000000    T
 <Sep25-2015> <13:46:04>  cart. step rms                      0.00403111     0.00666667    T
 <Sep25-2015> <13:46:04>  GEOMETRY CONVERGED
 <Sep25-2015> <13:46:04>  Calculating Energy Terms for Final Geometry
  Coordinates in Geometry Cycle 67
    Atom         X           Y           Z   (Angstrom)
    1.S         5.376636   -1.632049   -1.682676
    2.C         6.294130   -0.985486   -0.199093
    3.H         6.458671    0.092387   -0.326842
    4.H         5.715829   -1.147868    0.718552
    5.H         7.267343   -1.480375   -0.094809
    6.S         7.470239   -5.352085   -0.643257
    7.C         7.607239   -6.876512   -1.667236
    8.H         7.009766   -7.639617   -1.156486
    9.H         7.206536   -6.703990   -2.670403
   10.H         8.651434   -7.199884   -1.713582
   11.Ag        5.052609   -4.028553   -1.195380
   12.S         3.929133   -5.664508   -2.874679
   13.C         2.662635   -4.704876   -3.805922
   14.H         3.222069   -4.053457   -4.485135
   15.H         2.037471   -5.393798   -4.382030
   16.H         2.058994   -4.100045   -3.123660
   17.S         4.141976   -4.622499    1.293203
   18.C         2.312322   -4.812530    1.203766
   19.H         1.908875   -3.799679    1.097779
   20.H         2.027356   -5.416352    0.337133
   21.H         1.941027   -5.261178    2.130395
   22.H         4.438566   -5.945624    1.379883
   23.H         3.062824   -6.347192   -2.080909
   24.H         8.244468   -4.558317   -1.427610
 <Sep25-2015> <13:46:05>  >>>> CORORT
 <Sep25-2015> <13:46:05>  >>>> FITINT
 <Sep25-2015> <13:46:06>  >>>> CLSMAT
 <Sep25-2015> <13:46:06>  >>>> ORTHON
 <Sep25-2015> <13:46:06>  >>>> GENPT
 <Sep25-2015> <13:46:06>  Acc.Num.Int.=   6.000
 <Sep25-2015> <13:46:06>  Reusing previous cell geometry for gradient smoothing.
 <Sep25-2015> <13:46:07>  Block Length= 128
 <Sep25-2015> <13:46:08>  >>>> PTBAS
 <Sep25-2015> <13:46:17>  >>>> SURPTS
 <Sep25-2015> <13:46:17>  combining surface points...
 <Sep25-2015> <13:46:17>  combining surface points...
 <Sep25-2015> <13:46:17>  >>>> CYCLE
 <Sep25-2015> <13:46:22>    1
 <Sep25-2015> <13:46:28>    2  ErrMat   0.23779208  MaxEl  0.07809532
 <Sep25-2015> <13:46:34>    3  ErrMat   0.11740483  MaxEl  0.03259643
 <Sep25-2015> <13:46:40>    4  ErrMat   0.06040763  MaxEl -0.01215429
 <Sep25-2015> <13:46:46>    5  ErrMat   0.03763760  MaxEl -0.00926196
 <Sep25-2015> <13:46:52>    6  ErrMat   0.01982709  MaxEl  0.00546324
 <Sep25-2015> <13:46:58>    7  ErrMat   0.00399517  MaxEl -0.00072425
 <Sep25-2015> <13:47:04>    8  ErrMat   0.00158459  MaxEl  0.00037157
 <Sep25-2015> <13:47:11>    9  ErrMat   0.00048022  MaxEl -0.00007624
 <Sep25-2015> <13:47:17>   10  ErrMat   0.00013402  MaxEl  0.00002522
 <Sep25-2015> <13:47:23>   11  ErrMat   0.00004106  MaxEl -0.00001586
 <Sep25-2015> <13:47:28>   12  ErrMat   0.00004505  MaxEl  0.00002614
 <Sep25-2015> <13:47:34>   13  ErrMat   0.00000993  MaxEl  0.00000428
 <Sep25-2015> <13:47:40>   14  ErrMat   0.00000469  MaxEl -0.00000131
 <Sep25-2015> <13:47:46>   15  ErrMat   0.00000100  MaxEl  0.00000018
 <Sep25-2015> <13:47:53>   16  ErrMat   0.00000047  MaxEl -0.00000021
 <Sep25-2015> <13:47:59>   17  ErrMat   0.00000008  MaxEl  0.00000002
 <Sep25-2015> <13:48:05>   18  ErrMat   0.00000004  MaxEl -0.00000002
 <Sep25-2015> <13:48:11>   19  ErrMat   0.00000001  MaxEl  0.00000000
 <Sep25-2015> <13:48:11>  SCF converged
 <Sep25-2015> <13:48:18>   20  ErrMat   0.00000000  MaxEl  0.00000000
 <Sep25-2015> <13:48:22>  >>>> TOTEN
 <Sep25-2015> <13:48:40>  >>>> POPAN
 <Sep25-2015> <13:48:40>  >>>> DEBYE
 <Sep25-2015> <13:48:40>  >>>> AMETS
 <Sep25-2015> <13:48:40>  >>>> POPUL
 <Sep25-2015> <13:48:40>   Bond Energy          -3.94064633 a.u.
 <Sep25-2015> <13:48:40>   Bond Energy        -107.23044254 eV
 <Sep25-2015> <13:48:40>   Bond Energy       -2472.79       kcal/mol
 <Sep25-2015> <13:48:40>  NORMAL TERMINATION
 <Sep25-2015> <13:48:40>  END
